# vtk DataFile Version 3.0
Unstructured Grid
ASCII
DATASET UNSTRUCTURED_GRID
FIELD FieldData 1
TIME 1 1 float
  0.000000E+00
POINTS          221 double
 0.351742178357209E+000 0.645523407783390E+000 0.000000000000000E+000
 0.694630951033814E+000 0.701091480216873E+000 0.000000000000000E+000
 0.444290434587814E+000 0.583333333333333E+000 0.000000000000000E+000
 0.163319949572073E+000 0.641367550427927E+000 0.000000000000000E+000
 0.809804016564837E+000 0.696883452308508E+000 0.000000000000000E+000
 0.219926972888046E+000 0.641661545321309E+000 0.000000000000000E+000
 0.703278937155566E+000 0.646246727232910E+000 0.000000000000000E+000
 0.791440251447883E+000 0.616084437695053E+000 0.000000000000000E+000
 0.637057035743074E+000 0.656250000000000E+000 0.000000000000000E+000
 0.184325026484829E+000 0.633686374840909E+000 0.000000000000000E+000
 0.800680624492472E+000 0.735176793933313E+000 0.000000000000000E+000
 0.745265866238861E+000 0.657524987187777E+000 0.000000000000000E+000
 0.248254900362636E+000 0.642834891009747E+000 0.000000000000000E+000
 0.235061272836747E+000 0.578575272278445E+000 0.000000000000000E+000
 0.484217970417870E+000 0.577147705040991E+000 0.000000000000000E+000
 0.753516664238134E+000 0.595312862454153E+000 0.000000000000000E+000
 0.631319858402196E+000 0.625000000000000E+000 0.000000000000000E+000
 0.788861248984944E+000 0.720353587866626E+000 0.000000000000000E+000
 0.850321770992696E+000 0.714905104326029E+000 0.000000000000000E+000
 0.702783523293667E+000 0.621955474461009E+000 0.000000000000000E+000
 0.840049510108520E+000 0.571926237221924E+000 0.000000000000000E+000
 0.252573668988902E+000 0.663447665434525E+000 0.000000000000000E+000
 0.778683365218516E+000 0.603750709447042E+000 0.000000000000000E+000
 0.650268597437283E+000 0.614583333333333E+000 0.000000000000000E+000
 0.781185272208738E+000 0.651809529501746E+000 0.000000000000000E+000
 0.143461263851769E+000 0.619660833839413E+000 0.000000000000000E+000
 0.194559262778354E+000 0.563784962893799E+000 0.000000000000000E+000
 0.631611198932854E+000 0.593750000000000E+000 0.000000000000000E+000
 0.179222715797127E+000 0.583234893557361E+000 0.000000000000000E+000
 0.726741776026018E+000 0.641826072507920E+000 0.000000000000000E+000
 0.668282874660056E+000 0.668483718838195E+000 0.000000000000000E+000
 0.360641496033615E+000 0.617490482530049E+000 0.000000000000000E+000
 0.207376248542221E+000 0.641841362551062E+000 0.000000000000000E+000
 0.368673393487707E+000 0.607383741413326E+000 0.000000000000000E+000
 0.196614583333333E+000 0.714843750000000E+000 0.000000000000000E+000
 0.763152984000146E+000 0.671330529818316E+000 0.000000000000000E+000
 0.756366572213171E+000 0.657159282821673E+000 0.000000000000000E+000
 0.218247338209261E+000 0.665657573558972E+000 0.000000000000000E+000
 0.842936318697468E+000 0.701344811365993E+000 0.000000000000000E+000
 0.800695837781203E+000 0.688030133528766E+000 0.000000000000000E+000
 0.856929423436166E+000 0.531250000000000E+000 0.000000000000000E+000
 0.741765069262332E+000 0.731965890210201E+000 0.000000000000000E+000
 0.830026075225441E+000 0.703414803662752E+000 0.000000000000000E+000
 0.845458190819089E+000 0.664508828159854E+000 0.000000000000000E+000
 0.306381953804886E+000 0.665855676978263E+000 0.000000000000000E+000
 0.712720237758454E+000 0.721994332365220E+000 0.000000000000000E+000
 0.300089422395240E+000 0.610112833741411E+000 0.000000000000000E+000
 0.720039169457214E+000 0.584884695020454E+000 0.000000000000000E+000
 0.640362635209501E+000 0.640625000000000E+000 0.000000000000000E+000
 0.807426731196401E+000 0.557290393820970E+000 0.000000000000000E+000
 0.367387037905651E+000 0.656250000000000E+000 0.000000000000000E+000
 0.194425476023807E+000 0.628620829522835E+000 0.000000000000000E+000
 0.612013712510769E+000 0.593750000000000E+000 0.000000000000000E+000
 0.668623819239555E+000 0.614583333333333E+000 0.000000000000000E+000
 0.742720989650974E+000 0.579659820138212E+000 0.000000000000000E+000
 0.618506856255385E+000 0.609375000000000E+000 0.000000000000000E+000
 0.153340455874834E+000 0.576271588737463E+000 0.000000000000000E+000
 0.706690475516907E+000 0.709231803919161E+000 0.000000000000000E+000
 0.628305599466427E+000 0.609375000000000E+000 0.000000000000000E+000
 0.292494743296981E+000 0.626641168190628E+000 0.000000000000000E+000
 0.301419585118960E+000 0.687339662939830E+000 0.000000000000000E+000
 0.456355137944541E+000 0.575927649616140E+000 0.000000000000000E+000
 0.839905104326029E+000 0.725321770992696E+000 0.000000000000000E+000
 0.302239649265445E+000 0.652673776645858E+000 0.000000000000000E+000
 0.773243283893696E+000 0.665596636814455E+000 0.000000000000000E+000
 0.567341533594010E+000 0.588192888035664E+000 0.000000000000000E+000
 0.723248519663332E+000 0.610100235102257E+000 0.000000000000000E+000
 0.271354179735495E+000 0.632152340201182E+000 0.000000000000000E+000
 0.344126950524863E+000 0.570159965653303E+000 0.000000000000000E+000
 0.167643229166667E+000 0.708658854166667E+000 0.000000000000000E+000
 0.228318331531121E+000 0.662673084050922E+000 0.000000000000000E+000
 0.432851702508960E+000 0.572916666666667E+000 0.000000000000000E+000
 0.156250000000000E+000 0.729166666666667E+000 0.000000000000000E+000
 0.649394575845307E+000 0.645833333333333E+000 0.000000000000000E+000
 0.754323734320062E+000 0.585538400668622E+000 0.000000000000000E+000
 0.253398564636600E+000 0.598213910265507E+000 0.000000000000000E+000
 0.236901186853464E+000 0.600198422717813E+000 0.000000000000000E+000
 0.319544124044125E+000 0.597341441076587E+000 0.000000000000000E+000
 0.363106770061741E+000 0.560508741413326E+000 0.000000000000000E+000
 0.794703126509144E+000 0.656084563904204E+000 0.000000000000000E+000
 0.250198445382768E+000 0.682952143075200E+000 0.000000000000000E+000
 0.351213540123481E+000 0.558517482826652E+000 0.000000000000000E+000
 0.368673393487707E+000 0.576133741413326E+000 0.000000000000000E+000
 0.849321211998536E+000 0.545325309305481E+000 0.000000000000000E+000
 0.169997400662384E+000 0.642502599337615E+000 0.000000000000000E+000
 0.302093992570379E+000 0.578052726360088E+000 0.000000000000000E+000
 0.307163759987405E+000 0.592211434563026E+000 0.000000000000000E+000
 0.817593810385749E+000 0.576823338120593E+000 0.000000000000000E+000
 0.242525683111386E+000 0.652464696763041E+000 0.000000000000000E+000
 0.155476214365567E+000 0.555438255404130E+000 0.000000000000000E+000
 0.768614476090886E+000 0.569461456587881E+000 0.000000000000000E+000
 0.687701116326518E+000 0.681685266010927E+000 0.000000000000000E+000
 0.855591311508578E+000 0.618811670295991E+000 0.000000000000000E+000
 0.401362393223317E+000 0.578125000000000E+000 0.000000000000000E+000
 0.269674084191251E+000 0.729323250691421E+000 0.000000000000000E+000
 0.765696479687361E+000 0.604419016843363E+000 0.000000000000000E+000
 0.331025285653744E+000 0.566107998567088E+000 0.000000000000000E+000
 0.675427150605389E+000 0.680717437676390E+000 0.000000000000000E+000
 0.818885193085094E+000 0.549540954127907E+000 0.000000000000000E+000
 0.822069493961838E+000 0.693846950836460E+000 0.000000000000000E+000
 0.712383462415351E+000 0.692492950708044E+000 0.000000000000000E+000
 0.249570221720475E+000 0.701587016206421E+000 0.000000000000000E+000
 0.299309087021688E+000 0.675471297410803E+000 0.000000000000000E+000
 0.788338824707597E+000 0.695113894792023E+000 0.000000000000000E+000
 0.351323242997466E+000 0.634796815566780E+000 0.000000000000000E+000
 0.191166468463257E+000 0.584640382752380E+000 0.000000000000000E+000
 0.675235018172409E+000 0.604166666666667E+000 0.000000000000000E+000
 0.313449018835343E+000 0.616626640220875E+000 0.000000000000000E+000
 0.695403155518902E+000 0.594869075216553E+000 0.000000000000000E+000
 0.196345239962467E+000 0.681865062689007E+000 0.000000000000000E+000
 0.202664807481234E+000 0.693471593844504E+000 0.000000000000000E+000
 0.711437956821508E+000 0.608210681062309E+000 0.000000000000000E+000
 0.655684214137333E+000 0.662366859419098E+000 0.000000000000000E+000
 0.781236347017302E+000 0.675085289807043E+000 0.000000000000000E+000
 0.806072669231043E+000 0.652306383997813E+000 0.000000000000000E+000
 0.816790571166036E+000 0.590662037905497E+000 0.000000000000000E+000
 0.704061070695716E+000 0.566260413202601E+000 0.000000000000000E+000
 0.210116088067103E+000 0.578649471298582E+000 0.000000000000000E+000
 0.316560922944910E+000 0.628153078303585E+000 0.000000000000000E+000
 0.336545803671338E+000 0.616560705880219E+000 0.000000000000000E+000
 0.718750000000000E+000 0.739837907207520E+000 0.000000000000000E+000
 0.151040874474191E+000 0.585010794368731E+000 0.000000000000000E+000
 0.779139110247359E+000 0.690307835803491E+000 0.000000000000000E+000
 0.686748721991061E+000 0.608613868615252E+000 0.000000000000000E+000
 0.850748288842822E+000 0.559400618610962E+000 0.000000000000000E+000
 0.289439870559319E+000 0.576476013138758E+000 0.000000000000000E+000
 0.169810265212895E+000 0.574418177474926E+000 0.000000000000000E+000
 0.641236656801477E+000 0.609375000000000E+000 0.000000000000000E+000
 0.637639716804391E+000 0.625000000000000E+000 0.000000000000000E+000
 0.692953643900490E+000 0.580005206601300E+000 0.000000000000000E+000
 0.706016924830702E+000 0.684998506984473E+000 0.000000000000000E+000
 0.804230410957854E+000 0.596872219978108E+000 0.000000000000000E+000
 0.386438732078853E+000 0.593750000000000E+000 0.000000000000000E+000
 0.179999846994324E+000 0.545021588737463E+000 0.000000000000000E+000
 0.229362826708387E+000 0.569887992395842E+000 0.000000000000000E+000
 0.744601916670782E+000 0.567478757312595E+000 0.000000000000000E+000
 0.159464331750997E+000 0.628346717094594E+000 0.000000000000000E+000
 0.198198081309029E+000 0.575607118755486E+000 0.000000000000000E+000
 0.346282992067230E+000 0.609980965060098E+000 0.000000000000000E+000
 0.380719366039426E+000 0.578125000000000E+000 0.000000000000000E+000
[...]
POINT_DATA          221
SCALARS opt_pot double 1
LOOKUP_TABLE default
 0.166867497028845E+000
-0.525859329926857E+000
-0.614454154796711E-001
 0.428709324528048E+000
-0.611042225915707E+000
 0.255033844522783E+000
-0.458640188491691E+000
-0.638969703001042E+000
-0.402599071313046E+000
 0.341451517862383E+000
-0.753887993150113E+000
-0.441222275654754E+000
 0.196425170087639E+000
 0.301230768659577E+000
-0.100102886478135E+000
-0.445144220579736E+000
-0.296299783906204E+000
-0.690262708361323E+000
-0.795699687927441E+000
-0.403527094745234E+000
-0.698820142163613E+000
 0.219997023039704E+000
-0.568857315697586E+000
-0.339114333473798E+000
-0.536945239775201E+000
 0.510295990621270E+000
 0.358408037280056E+000
-0.252073013166615E+000
 0.396518343111945E+000
-0.400120695228547E+000
-0.434827064145117E+000
 0.574636087982310E-001
 0.283592284423706E+000
 0.217343089525662E-001
 0.437023323670766E+000
-0.482422506581580E+000
-0.481726475727968E+000
 0.264980704424017E+000
-0.759571167713052E+000
-0.576912051785571E+000
-0.820633834939558E+000
-0.743690167401702E+000
-0.688539454286279E+000
-0.795718843360156E+000
 0.173816607710999E+000
-0.626669339070869E+000
 0.118261616449237E+000
-0.423182091790598E+000
-0.329217855413732E+000
-0.723708712828019E+000
 0.262174753265978E+000
 0.362622852993619E+000
-0.230998409493197E+000
-0.305445362203623E+000
-0.485724187374857E+000
-0.260873138921643E+000
 0.523364924471715E+000
-0.572211938417520E+000
-0.334717226272640E+000
 0.202264728861782E+000
 0.256641367541839E+000
-0.683050215552979E-001
-0.778108887392345E+000
 0.166519178833133E+000
-0.568420621219275E+000
-0.184922976692275E+000
-0.422307464934311E+000
 0.197767215507594E+000
 0.162884962552270E+000
 0.494099625437912E+000
 0.237623663773456E+000
-0.345394346702565E-001
 0.556635420450504E+000
-0.355580782948303E+000
-0.524658423050261E+000
 0.200303880845428E+000
 0.278942620653514E+000
 0.127220117357702E+000
 0.146490243770962E+000
-0.582112508157043E+000
 0.278576603611827E+000
 0.185372639336627E+000
 0.679903103118570E-001
-0.747118733618635E+000
 0.396654161587056E+000
 0.224924106710582E+000
 0.177558604483747E+000
-0.593217956654229E+000
 0.205423683277121E+000
 0.537102781833995E+000
-0.566276029526765E+000
-0.502791835425172E+000
-0.800829802925604E+000
 0.228293172011778E-001
 0.415538627058220E+000
-0.509107504724277E+000
 0.227787861509355E+000
-0.455064689393186E+000
-0.787266923853956E+000
-0.657692827730640E+000
-0.623308010058063E+000
 0.366818543450701E+000
 0.204905388741840E+000
-0.592854639348074E+000
 0.116063872258369E+000
 0.357055472872207E+000
-0.308313770971952E+000
 0.136448578377358E+000
-0.359333521407386E+000
 0.351223722158761E+000
 0.331902149318500E+000
-0.367351344656891E+000
-0.390323025625745E+000
-0.523218850168097E+000
-0.627723095294848E+000
-0.614909430700729E+000
-0.498776819613956E+000
 0.298857231936210E+000
 0.881440242229285E-001
 0.597327378406583E-001
-0.713209794981544E+000
 0.530156938438331E+000
-0.545164178510118E+000
-0.327456801262826E+000
-0.742403220260710E+000
 0.289726747758923E+000
 0.479526903765879E+000
-0.336394232893692E+000
-0.325337642945380E+000
-0.417579955539927E+000
-0.588313328720914E+000
-0.577316689856893E+000
-0.125306738202228E-002
 0.447618107715409E+000
 0.350400225993891E+000
-0.561504355905983E+000
 0.424122889372199E+000
 0.345060278738000E+000
 0.453646615437985E-001
 0.711229774469929E-001
-0.872155297819732E-001
 0.174188710738838E+000
 0.458402658183359E+000
 0.186064820146097E+000
-0.633257120636746E+000
 0.283188805840789E+000
-0.522548092999539E+000
-0.405267143554292E+000
 0.316584866435146E+000
 0.469307441542023E+000
 0.191171684345897E+000
-0.341171149271598E+000
 0.365188085333924E+000
 0.330834253973849E+000
 0.318461840739843E+000
 0.485061636658857E+000
 0.280453219594852E+000
 0.132842710348109E+000
-0.435398062270741E+000
 0.267254298745181E+000
-0.696749349178485E+000
-0.633812002662564E+000
 0.346623297907534E+000
 0.279393493030244E+000
 0.370691714294467E+000
 0.259392854290151E+000
 0.813793696520631E-001
 0.488580846096307E+000
 0.370912838598067E+000
 0.454320052627202E+000
-0.117082171266929E+000
-0.382389302646172E-001
 0.337365137332255E+000
 0.249150995040519E+000
 0.415937542987044E+000
-0.643403742009228E+000
 0.453900823407912E+000
 0.186404470999626E+000
-0.494336206443429E+000
 0.250704255792168E+000
-0.314258849725059E+000
-0.707472722860117E+000
 0.528120786588166E+000
-0.426388513248605E+000
-0.628162428181359E+000
 0.465060022083570E+000
 0.214109106471117E+000
 0.481510042681828E+000
-0.128017940169770E-001
-0.397825620044179E+000
-0.386391194625612E+000
-0.259341263052062E+000
-0.489235612889127E+000
 0.277211052827922E+000
-0.669927791293801E+000
-0.282795974270900E+000
 0.514849796711969E+000
 0.337424937443527E+000
 0.381499534546285E+000
 0.191735128265033E-002
 0.427830988549682E+000
 0.327777806713099E+000
-0.494497764614049E+000
 0.405221422691871E+000
-0.370164294819509E+000
 0.103554663815126E+000
 0.154243661688409E+000
-0.538635830881107E+000
-0.707229462535896E+000
 0.348591410382753E+000
-0.598608597043399E+000
-0.217092484132415E+000
 0.262848632101674E+000
-0.660529491379459E+000
 0.164553193013598E+000
 0.125034470632948E+000
-0.149410817416719E+000
 0.633483809193761E-001
 0.482514213928286E+000
-0.754929356517635E+000
-0.665732996761715E+000
