# vtk DataFile Version 3.0
Unstructured Grid
ASCII
DATASET UNSTRUCTURED_GRID
FIELD FieldData 1
TIME 1 1 float
  0.000000E+00
POINTS          221 double
 0.351742178357209E+000 0.645523407783390E+000 0.000000000000000E+000
 0.694630951033814E+000 0.701091480216873E+000 0.000000000000000E+000
 0.444290434587814E+000 0.583333333333333E+000 0.000000000000000E+000
 0.163319949572073E+000 0.641367550427927E+000 0.000000000000000E+000
 0.809804016564837E+000 0.696883452308508E+000 0.000000000000000E+000
 0.219926972888046E+000 0.641661545321309E+000 0.000000000000000E+000
 0.703278937155566E+000 0.646246727232910E+000 0.000000000000000E+000
 0.791440251447883E+000 0.616084437695053E+000 0.000000000000000E+000
 0.637057035743074E+000 0.656250000000000E+000 0.000000000000000E+000
 0.184325026484829E+000 0.633686374840909E+000 0.000000000000000E+000
 0.800680624492472E+000 0.735176793933313E+000 0.000000000000000E+000
 0.745265866238861E+000 0.657524987187777E+000 0.000000000000000E+000
 0.248254900362636E+000 0.642834891009747E+000 0.000000000000000E+000
 0.235061272836747E+000 0.578575272278445E+000 0.000000000000000E+000
 0.484217970417870E+000 0.577147705040991E+000 0.000000000000000E+000
 0.753516664238134E+000 0.595312862454153E+000 0.000000000000000E+000
 0.631319858402196E+000 0.625000000000000E+000 0.000000000000000E+000
 0.788861248984944E+000 0.720353587866626E+000 0.000000000000000E+000
 0.850321770992696E+000 0.714905104326029E+000 0.000000000000000E+000
 0.702783523293667E+000 0.621955474461009E+000 0.000000000000000E+000
 0.840049510108520E+000 0.571926237221924E+000 0.000000000000000E+000
 0.252573668988902E+000 0.663447665434525E+000 0.000000000000000E+000
 0.778683365218516E+000 0.603750709447042E+000 0.000000000000000E+000
 0.650268597437283E+000 0.614583333333333E+000 0.000000000000000E+000
 0.781185272208738E+000 0.651809529501746E+000 0.000000000000000E+000
 0.143461263851769E+000 0.619660833839413E+000 0.000000000000000E+000
 0.194559262778354E+000 0.563784962893799E+000 0.000000000000000E+000
 0.631611198932854E+000 0.593750000000000E+000 0.000000000000000E+000
 0.179222715797127E+000 0.583234893557361E+000 0.000000000000000E+000
 0.726741776026018E+000 0.641826072507920E+000 0.000000000000000E+000
 0.668282874660056E+000 0.668483718838195E+000 0.000000000000000E+000
 0.360641496033615E+000 0.617490482530049E+000 0.000000000000000E+000
 0.207376248542221E+000 0.641841362551062E+000 0.000000000000000E+000
 0.368673393487707E+000 0.607383741413326E+000 0.000000000000000E+000
 0.196614583333333E+000 0.714843750000000E+000 0.000000000000000E+000
 0.763152984000146E+000 0.671330529818316E+000 0.000000000000000E+000
 0.756366572213171E+000 0.657159282821673E+000 0.000000000000000E+000
 0.218247338209261E+000 0.665657573558972E+000 0.000000000000000E+000
 0.842936318697468E+000 0.701344811365993E+000 0.000000000000000E+000
 0.800695837781203E+000 0.688030133528766E+000 0.000000000000000E+000
 0.856929423436166E+000 0.531250000000000E+000 0.000000000000000E+000
 0.741765069262332E+000 0.731965890210201E+000 0.000000000000000E+000
 0.830026075225441E+000 0.703414803662752E+000 0.000000000000000E+000
 0.845458190819089E+000 0.664508828159854E+000 0.000000000000000E+000
 0.306381953804886E+000 0.665855676978263E+000 0.000000000000000E+000
 0.712720237758454E+000 0.721994332365220E+000 0.000000000000000E+000
 0.300089422395240E+000 0.610112833741411E+000 0.000000000000000E+000
 0.720039169457214E+000 0.584884695020454E+000 0.000000000000000E+000
 0.640362635209501E+000 0.640625000000000E+000 0.000000000000000E+000
 0.807426731196401E+000 0.557290393820970E+000 0.000000000000000E+000
 0.367387037905651E+000 0.656250000000000E+000 0.000000000000000E+000
 0.194425476023807E+000 0.628620829522835E+000 0.000000000000000E+000
 0.612013712510769E+000 0.593750000000000E+000 0.000000000000000E+000
 0.668623819239555E+000 0.614583333333333E+000 0.000000000000000E+000
 0.742720989650974E+000 0.579659820138212E+000 0.000000000000000E+000
 0.618506856255385E+000 0.609375000000000E+000 0.000000000000000E+000
 0.153340455874834E+000 0.576271588737463E+000 0.000000000000000E+000
 0.706690475516907E+000 0.709231803919161E+000 0.000000000000000E+000
 0.628305599466427E+000 0.609375000000000E+000 0.000000000000000E+000
 0.292494743296981E+000 0.626641168190628E+000 0.000000000000000E+000
 0.301419585118960E+000 0.687339662939830E+000 0.000000000000000E+000
 0.456355137944541E+000 0.575927649616140E+000 0.000000000000000E+000
 0.839905104326029E+000 0.725321770992696E+000 0.000000000000000E+000
 0.302239649265445E+000 0.652673776645858E+000 0.000000000000000E+000
 0.773243283893696E+000 0.665596636814455E+000 0.000000000000000E+000
 0.567341533594010E+000 0.588192888035664E+000 0.000000000000000E+000
 0.723248519663332E+000 0.610100235102257E+000 0.000000000000000E+000
 0.271354179735495E+000 0.632152340201182E+000 0.000000000000000E+000
 0.344126950524863E+000 0.570159965653303E+000 0.000000000000000E+000
 0.167643229166667E+000 0.708658854166667E+000 0.000000000000000E+000
 0.228318331531121E+000 0.662673084050922E+000 0.000000000000000E+000
 0.432851702508960E+000 0.572916666666667E+000 0.000000000000000E+000
 0.156250000000000E+000 0.729166666666667E+000 0.000000000000000E+000
 0.649394575845307E+000 0.645833333333333E+000 0.000000000000000E+000
 0.754323734320062E+000 0.585538400668622E+000 0.000000000000000E+000
 0.253398564636600E+000 0.598213910265507E+000 0.000000000000000E+000
 0.236901186853464E+000 0.600198422717813E+000 0.000000000000000E+000
 0.319544124044125E+000 0.597341441076587E+000 0.000000000000000E+000
 0.363106770061741E+000 0.560508741413326E+000 0.000000000000000E+000
 0.794703126509144E+000 0.656084563904204E+000 0.000000000000000E+000
 0.250198445382768E+000 0.682952143075200E+000 0.000000000000000E+000
 0.351213540123481E+000 0.558517482826652E+000 0.000000000000000E+000
 0.368673393487707E+000 0.576133741413326E+000 0.000000000000000E+000
 0.849321211998536E+000 0.545325309305481E+000 0.000000000000000E+000
 0.169997400662384E+000 0.642502599337615E+000 0.000000000000000E+000
 0.302093992570379E+000 0.578052726360088E+000 0.000000000000000E+000
 0.307163759987405E+000 0.592211434563026E+000 0.000000000000000E+000
 0.817593810385749E+000 0.576823338120593E+000 0.000000000000000E+000
 0.242525683111386E+000 0.652464696763041E+000 0.000000000000000E+000
 0.155476214365567E+000 0.555438255404130E+000 0.000000000000000E+000
 0.768614476090886E+000 0.569461456587881E+000 0.000000000000000E+000
 0.687701116326518E+000 0.681685266010927E+000 0.000000000000000E+000
 0.855591311508578E+000 0.618811670295991E+000 0.000000000000000E+000
 0.401362393223317E+000 0.578125000000000E+000 0.000000000000000E+000
 0.269674084191251E+000 0.729323250691421E+000 0.000000000000000E+000
 0.765696479687361E+000 0.604419016843363E+000 0.000000000000000E+000
 0.331025285653744E+000 0.566107998567088E+000 0.000000000000000E+000
 0.675427150605389E+000 0.680717437676390E+000 0.000000000000000E+000
 0.818885193085094E+000 0.549540954127907E+000 0.000000000000000E+000
 0.822069493961838E+000 0.693846950836460E+000 0.000000000000000E+000
 0.712383462415351E+000 0.692492950708044E+000 0.000000000000000E+000
 0.249570221720475E+000 0.701587016206421E+000 0.000000000000000E+000
 0.299309087021688E+000 0.675471297410803E+000 0.000000000000000E+000
 0.788338824707597E+000 0.695113894792023E+000 0.000000000000000E+000
 0.351323242997466E+000 0.634796815566780E+000 0.000000000000000E+000
 0.191166468463257E+000 0.584640382752380E+000 0.000000000000000E+000
 0.675235018172409E+000 0.604166666666667E+000 0.000000000000000E+000
 0.313449018835343E+000 0.616626640220875E+000 0.000000000000000E+000
 0.695403155518902E+000 0.594869075216553E+000 0.000000000000000E+000
 0.196345239962467E+000 0.681865062689007E+000 0.000000000000000E+000
 0.202664807481234E+000 0.693471593844504E+000 0.000000000000000E+000
 0.711437956821508E+000 0.608210681062309E+000 0.000000000000000E+000
 0.655684214137333E+000 0.662366859419098E+000 0.000000000000000E+000
 0.781236347017302E+000 0.675085289807043E+000 0.000000000000000E+000
 0.806072669231043E+000 0.652306383997813E+000 0.000000000000000E+000
 0.816790571166036E+000 0.590662037905497E+000 0.000000000000000E+000
 0.704061070695716E+000 0.566260413202601E+000 0.000000000000000E+000
 0.210116088067103E+000 0.578649471298582E+000 0.000000000000000E+000
 0.316560922944910E+000 0.628153078303585E+000 0.000000000000000E+000
 0.336545803671338E+000 0.616560705880219E+000 0.000000000000000E+000
 0.718750000000000E+000 0.739837907207520E+000 0.000000000000000E+000
 0.151040874474191E+000 0.585010794368731E+000 0.000000000000000E+000
 0.779139110247359E+000 0.690307835803491E+000 0.000000000000000E+000
 0.686748721991061E+000 0.608613868615252E+000 0.000000000000000E+000
 0.850748288842822E+000 0.559400618610962E+000 0.000000000000000E+000
 0.289439870559319E+000 0.576476013138758E+000 0.000000000000000E+000
 0.169810265212895E+000 0.574418177474926E+000 0.000000000000000E+000
 0.641236656801477E+000 0.609375000000000E+000 0.000000000000000E+000
 0.637639716804391E+000 0.625000000000000E+000 0.000000000000000E+000
 0.692953643900490E+000 0.580005206601300E+000 0.000000000000000E+000
 0.706016924830702E+000 0.684998506984473E+000 0.000000000000000E+000
 0.804230410957854E+000 0.596872219978108E+000 0.000000000000000E+000
 0.386438732078853E+000 0.593750000000000E+000 0.000000000000000E+000
 0.179999846994324E+000 0.545021588737463E+000 0.000000000000000E+000
 0.229362826708387E+000 0.569887992395842E+000 0.000000000000000E+000
 0.744601916670782E+000 0.567478757312595E+000 0.000000000000000E+000
 0.159464331750997E+000 0.628346717094594E+000 0.000000000000000E+000
 0.198198081309029E+000 0.575607118755486E+000 0.000000000000000E+000
 0.346282992067230E+000 0.609980965060098E+000 0.000000000000000E+000
 0.380719366039426E+000 0.578125000000000E+000 0.000000000000000E+000
[...]
CELL_DATA          658
SCALARS opt_tdens double 1
LOOKUP_TABLE default
 0.100000000000000E-014
 0.300531023971218E-012
 0.199338956147203E-002
 0.100000000000000E-014
 0.100000000000000E-014
 0.100000000000000E-014
 0.565385086331330E-002
 0.970806541270480E-002
 0.244627919345195E-001
 0.100000000000000E-014
 0.100000000000000E-014
 0.100000000000000E-014
 0.100000000000000E-014
 0.999999999999993E+000
 0.100000000000000E-014
 0.999999999999994E+000
 0.100000000000000E-014
 0.100000000000000E-014
 0.199338956115348E-002
 0.100000000000000E-014
 0.100000000000000E-014
 0.100000000000000E-014
 0.100000000000000E-014
 0.100000000000000E-014
 0.565385086331087E-002
 0.100000000000000E-014
 0.100000000000000E-014
 0.191836404812230E-001
 0.565385086331468E-002
 0.100000000000000E-014
 0.547646741186039E-001
 0.502302693746080E-002
 0.373177564127683E-001
 0.100000000000000E-014
 0.100000000000000E-014
 0.100000000000000E-014
 0.100000000000000E-014
 0.100000000000000E-014
 0.100000000000000E-014
 0.224373220202194E-002
 0.100000000000000E-014
 0.100000000000000E-014
 0.100000000000000E-014
 0.224373220202052E-002
 0.100000000000000E-014
 0.100000000000000E-014
 0.100000000000000E-014
 0.224373220201882E-002
 0.161739641189578E-014
 0.100000000000000E-014
 0.100000000000000E-014
 0.126572347454327E-001
 0.862489571408310E-002
 0.100000000000000E-014
 0.318942329784610E-001
 0.100000000000000E-014
 0.224373220202240E-002
 0.100000000000000E-014
 0.100000000000000E-014
 0.100000000000000E-014
 0.100000000000000E-014
 0.121808524321794E+000
 0.565385086323940E-002
 0.904616138130692E-001
 0.224373220202423E-002
 0.100000000000000E-014
 0.100000000000000E-014
 0.338837083100696E-014
 0.609326382766298E-001
 0.119026607328410E-014
 0.100000000000000E-014
 0.100000000000000E-014
 0.117787393709372E-014
 0.100000000000000E-014
 0.502302693746809E-002
 0.100000000000000E-014
 0.100000000000000E-014
 0.199338956114994E-002
 0.159765491507128E-014
 0.100000000000000E-014
 0.123805787914655E-014
 0.100000000000000E-014
 0.830027917231955E-001
 0.100000000000000E-014
 0.100000000000000E-014
 0.100000000000000E-014
 0.757079933344689E-001
 0.210306894929692E-014
 0.105844353468571E+000
 0.100000000000000E-014
 0.100000000000000E-014
 0.100000000000000E-014
 0.100000000000000E-014
 0.904616138130276E-001
 0.224373220202593E-002
 0.100000000000000E-014
 0.224373220202365E-002
 0.100000000000000E-014
 0.100000000000000E-014
 0.100000000000000E-014
 0.224373220202316E-002
 0.100000000000000E-014
 0.100000000000000E-014
 0.100000000000000E-014
 0.100000000000000E-014
 0.100000000000000E-014
 0.224373220196557E-002
 0.565385086323711E-002
 0.100000000000000E-014
 0.100000000000000E-014
 0.100000000000000E-014
 0.224373220202337E-002
 0.100000000000000E-014
 0.100000000000000E-014
 0.100000000000000E-014
 0.100000000000000E-014
 0.100000000000000E-014
 0.199338956115513E-002
 0.266925193565926E-001
 0.100000000000000E-014
 0.100000000000000E-014
 0.126572347454239E-001
 0.199338956115025E-002
 0.100000000000000E-014
 0.100000000000000E-014
 0.159604502488361E-014
 0.224373220201739E-002
 0.100000000000000E-014
 0.109830861940742E-014
 0.100000000000000E-014
 0.100000000000000E-014
 0.224373220201596E-002
 0.271486193636798E-014
 0.371239613312100E-014
 0.100000000000000E-014
 0.100000000000000E-014
 0.244627919345935E-001
 0.100000000000000E-014
 0.100000000000000E-014
 0.100000000000000E-014
 0.100000000000000E-014
 0.970806541276662E-002
 0.565385086331239E-002
 0.199338956115219E-002
 0.100000000000000E-014
 0.100000000000000E-014
 0.170432410096361E-001
 0.100000000000000E-014
 0.100000000000000E-014
 0.100000000000000E-014
 0.100000000000000E-014
 0.502302693749052E-002
 0.502302693745474E-002
 0.100000000000000E-014
 0.747762746046038E+000
 0.684544209481595E+000
 0.100000000000000E-014
 0.970806541258313E-002
 0.337700029784982E-013
 0.224373220202279E-002
 0.100000000000000E-014
 0.100000000000000E-014
 0.429056079467425E-014
 0.199338956115224E-002
 0.199338956115212E-002
 0.862489571411449E-002
 0.100000000000000E-014
 0.358997152325876E-001
 0.100000000000000E-014
 0.199910229701928E+000
 0.191836404812971E-001
 0.100000000000000E-014
 0.268871700181093E-014
 0.142468114313758E-001
 0.211153088752037E-014
 0.100000000000000E-014
 0.170432410102135E-001
 0.100000000000000E-014
 0.126572347459294E-001
 0.100000000000000E-014
 0.716882657886812E-013
 0.100000000000000E-014
 0.100000000000000E-014
 0.100000000000000E-014
 0.100000000000000E-014
 0.827896314821102E+000
 0.100000000000000E-014
 0.100000000000000E-014
 0.100000000000000E-014
 0.100000000000000E-014
 0.100000000000000E-014
 0.900658766542559E+000
 0.100000000000000E-014
 0.100000000000000E-014
 0.100000000000000E-014
 0.100000000000000E-014
 0.100000000000000E-014
 0.199338956115297E-002
 0.100000000000000E-014
 0.420043595102442E-001
 0.244627919345927E-001
 0.100000000000000E-014
 0.100000000000000E-014
 0.100000000000000E-014
 0.100000000000000E-014
 0.247137517756940E-013
 0.224373220201395E-002
 0.100000000000000E-014
 0.170432410173277E-001
 0.100000000000000E-014
 0.100000000000000E-014
 0.217333753348153E-001
 0.100000000000000E-014
 0.100000000000000E-014
 0.224373220202393E-002
 0.100000000000000E-014
 0.358997152323915E-001
 0.100000000000000E-014
 0.100000000000000E-014
 0.565385086331931E-002
 0.100000000000000E-014
 0.224373220202399E-002
 0.100000000000000E-014
 0.224373220202431E-002
 0.100000000000000E-014
 0.100000000000000E-014
 0.188057889738135E-014
 0.100000000000000E-014
 0.100000000000000E-014
 0.224373220202398E-002
 0.502302693746369E-002
 0.100000000000000E-014
 0.217333753266557E-001
 0.373177564127477E-001
 0.100000000000000E-014
 0.100000000000000E-014
 0.100000000000000E-014
 0.224373220202421E-002
 0.100000000000000E-014
 0.100000000000000E-014
 0.100000000000000E-014
 0.137998331425327E+000
 0.199338956115164E-002
 0.100000000000000E-014
 0.153540627180693E+000
 0.100000000000000E-014
 0.100000000000000E-014
 0.100000000000000E-014
 0.100000000000000E-014
 0.224373220202328E-002
 0.100000000000000E-014
 0.100000000000000E-014
 0.191836404810871E-001
 0.100000000000000E-014
 0.300447370651414E-001
 0.244627919346683E-001
 0.100000000000000E-014
 0.100000000000000E-014
 0.358997152323102E-001
 0.224373220201645E-002
 0.100000000000000E-014
 0.100000000000000E-014
 0.565385086330209E-002
 0.100000000000000E-014
 0.100000000000000E-014
 0.100000000000000E-014
 0.199338956115016E-002
 0.118736443320718E-014
 0.199338956114333E-002
 0.100000000000000E-014
 0.760572250349057E+000
 0.224373220191880E-002
 0.100000000000000E-014
 0.237495986155459E+000
 0.100000000000000E-014
 0.100000000000000E-014
 0.227948982901219E+000
 0.142468114311814E-001
 0.100000000000000E-014
 0.100000000000000E-014
 0.100000000000000E-014
 0.100000000000000E-014
 0.105844353468841E+000
 0.158373903669973E-013
 0.100000000000000E-014
 0.100000000000000E-014
 0.100000000000000E-014
 0.565385086331460E-002
 0.100000000000000E-014
 0.349270469709938E-013
 0.100000000000000E-014
 0.100000000000000E-014
 0.142648935447134E-014
 0.139232688363974E-014
 0.198882695667465E-014
 0.199338956113584E-002
 0.100000000000000E-014
 0.100000000000000E-014
 0.100000000000000E-014
 0.100000000000000E-014
 0.100000000000000E-014
 0.186660534163937E-014
 0.100000000000000E-014
 0.100000000000000E-014
 0.100000000000000E-014
 0.100000000000000E-014
 0.199338956114503E-002
 0.100000000000000E-014
 0.100483565616675E-014
 0.100000000000000E-014
 0.224373220202365E-002
 0.199338956115074E-002
 0.133322918862329E-014
 0.502302693747234E-002
 0.100000000000000E-014
 0.100000000000000E-014
 0.100000000000000E-014
 0.248964739072065E-014
 0.100000000000000E-014
 0.100000000000000E-014
 0.100000000000000E+001
 0.100000000000000E+001
 0.149532992903084E-013
 0.100000000000000E-014
 0.224373220203253E-002
 0.100000000000000E-014
 0.100000000000000E-014
 0.100000000000000E-014
 0.100000000000000E-014
 0.100000000000000E-014
 0.100000000000000E-014
 0.199338956115215E-002
 0.199338956115241E-002
 0.100000000000000E-014
 0.100000000000000E-014
 0.502302693747369E-002
 0.100000000000000E-014
 0.100000000000000E-014
 0.100000000000000E-014
 0.199338956115183E-002
 0.100000000000000E-014
 0.100000000000000E-014
 0.100000000000000E-014
 0.100000000000000E-014
 0.871346199872369E-001
 0.100000000000000E-014
 0.429462762032572E-001
 0.100000000000000E-014
 0.100000000000000E-014
 0.101228336253645E-014
 0.199338956115181E-002
 0.100000000000000E-014
 0.100000000000000E-014
 0.100000000000000E-014
 0.100000000000000E-014
 0.100000000000000E-014
 0.100000000000000E-014
 0.100000000000000E-014
 0.224373220202042E-002
 0.100000000000000E-014
 0.100000000000000E-014
 0.100000000000000E-014
 0.100000000000000E-014
 0.199338956115510E-002
 0.100000000000000E-014
 0.803684309995743E-001
 0.108217834830574E+000
 0.100000000000000E-014
 0.100000000000000E-014
 0.208934731602244E-014
 0.355662491406592E-014
 0.100000000000000E-014
 0.100000000000000E-014
 0.100000000000000E-014
 0.100000000000000E-014
 0.502302693743139E-002
 0.100000000000000E-014
 0.170432410095768E-001
 0.502302693747306E-002
 0.100000000000000E-014
 0.199338956105020E-002
 0.404912349655278E-013
 0.100000000000000E-014
 0.565385086331617E-002
 0.100000000000000E-014
 0.100000000000000E-014
 0.502302693747249E-002
 0.199338956115305E-002
 0.100000000000000E-014
 0.100000000000000E-014
 0.199338956115195E-002
 0.100000000000000E-014
 0.384177965966418E-014
 0.170432410094617E-001
 0.565385086331421E-002
 0.100000000000000E-014
 0.100000000000000E-014
 0.100000000000000E-014
 0.100000000000000E-014
 0.199338956115148E-002
 0.100000000000000E-014
 0.199338956115151E-002
 0.100000000000000E-014
 0.100000000000000E-014
 0.199338956115262E-002
 0.100081578607781E-013
 0.100000000000000E-014
 0.142468114313176E-001
 0.100000000000000E-014
 0.100000000000000E-014
 0.100000000000000E-014
 0.244627919346037E-001
 0.100000000000000E-014
 0.100000000000000E-014
 0.100000000000000E-014
 0.101064115838966E+000
 0.199338956114902E-002
 0.100000000000000E-014
 0.199338956115161E-002
 0.100000000000000E-014
 0.100000000000000E-014
 0.100000000000000E-014
 0.970806541264467E-002
 0.100000000000000E-014
 0.100000000000000E-014
 0.100000000000000E-014
 0.565385086335532E-002
 0.224373220203163E-002
 0.100000000000000E-014
 0.224373220202322E-002
 0.100000000000000E-014
 0.686836142316007E-014
 0.100000000000000E-014
 0.441939171381052E-014
 0.119870200104406E-014
 0.100000000000000E-014
 0.199338956115131E-002
 0.100000000000000E-014
 0.970806541274658E-002
 0.100000000000000E-014
 0.300447370652215E-001
 0.100000000000000E-014
 0.100000000000000E-014
 0.100000000000000E-014
 0.100000000000000E-014
 0.224373220201527E-002
 0.265789604451000E-014
 0.100000000000000E-014
 0.100000000000000E-014
 0.100000000000000E-014
 0.100000000000000E-014
 0.202595934914768E-014
 0.170432410096357E-001
 0.100000000000000E-014
 0.224373220202835E-002
 0.105000181517172E-014
 0.100000000000000E-014
 0.100000000000000E-014
 0.100000000000000E-014
 0.502302693747140E-002
 0.100000000000000E-014
 0.100000000000000E-014
 0.126572347455178E-001
 0.100000000000000E-014
 0.100000000000000E-014
 0.860734392448695E-014
 0.100000000000000E-014
 0.100000000000000E-014
 0.100000000000000E-014
 0.276634698494421E+000
 0.565385086326459E-002
 0.358997152323017E-001
 0.172823243503540E+000
 0.100000000000000E-014
 0.100000000000000E-014
 0.100000000000000E-014
 0.100000000000000E-014
 0.199338956113444E-002
 0.820812984428704E-014
 0.100000000000000E-014
 0.949898619631685E-014
 0.100000000000000E-014
 0.100000000000000E-014
 0.100000000000000E-014
 0.466005565284897E-013
 0.100000000000000E-014
 0.199338956052645E-002
 0.100000000000000E-014
 0.141110823758144E-011
 0.100000000000000E-014
 0.502302693101811E-002
 0.100000000000000E-014
 0.170432410096443E-001
 0.133797450053323E-012
 0.100000000000000E-014
 0.100000000000000E-014
 0.266925193577914E-001
 0.129996027367503E+000
 0.100000000000000E-014
 0.146760146182484E+000
 0.100000000000000E-014
 0.100000000000000E-014
 0.100000000000000E-014
 0.224373220202286E-002
 0.100000000000000E-014
 0.100000000000000E-014
 0.100000000000000E-014
 0.100000000000000E-014
 0.224373220189466E-002
 0.100000000000000E-014
 0.565385086315251E-002
 0.100000000000000E-014
 0.224373220198540E-002
 0.100000000000000E-014
 0.502302693739972E-002
 0.199338956115181E-002
 0.100000000000000E-014
 0.373177564126242E-001
 0.100000000000000E-014
 0.547646741186037E-001
 0.300296396251953E+000
 0.100000000000000E-014
 0.100000000000000E-014
 0.437279032926755E+000
 0.100000000000000E-014
 0.447537575100436E+000
 0.100000000000000E-014
 0.100000000000000E-014
 0.100000000000000E-014
 0.565385086331033E-002
 0.224373220202351E-002
 0.100000000000000E-014
 0.100000000000000E-014
 0.224373220202433E-002
 0.100000000000000E-014
 0.199338956109212E-002
 0.100000000000000E-014
 0.100000000000000E-014
 0.100000000000000E-014
 0.100000000000000E-014
 0.100000000000000E-014
 0.100000000000000E-014
 0.100000000000000E-014
 0.100000000000000E-014
 0.100000000000000E-014
 0.358858380217735E-013
 0.565385086331262E-002
 0.100000000000000E-014
 0.970806541294926E-002
 0.962443283129663E+000
 0.100000000000000E-014
 0.237890101470825E-013
 0.100000000000000E-014
 0.100000000000000E-014
 0.199338956113774E-002
 0.100000000000000E-014
 0.121345532405901E-014
 0.100000000000000E-014
 0.862489571408365E-002
 0.100000000000000E-014
 0.100000000000000E-014
 0.199338956115291E-002
 0.100000000000000E-014
 0.100000000000000E-014
 0.100000000000000E-014
 0.100000000000000E-014
 0.169486933225397E+000
 0.100000000000000E-014
 0.100000000000000E-014
 0.100000000000000E-014
 0.999999999999994E+000
 0.100000000000000E-014
 0.100000000000000E-014
 0.100000000000000E-014
 0.100000000000000E-014
 0.100000000000000E-014
 0.100000000000000E-014
 0.199338956113149E-002
 0.502302693744701E-002
 0.100000000000000E-014
 0.502302693746792E-002
 0.100000000000000E-014
 0.100000000000000E-014
 0.199338956114078E-002
 0.217333753267304E-001
 0.100000000000000E-014
 0.224373220208289E-002
 0.483397449116966E-001
 0.142468114312838E-001
 0.126572347451982E-001
 0.100000000000000E-014
 0.100000000000000E-014
 0.199338956083108E-002
 0.209153928983763E+000
 0.502302693747256E-002
 0.199338956115228E-002
 0.100000000000000E-014
 0.100000000000000E-014
 0.100000000000000E-014
 0.199338956115182E-002
 0.100000000000000E-014
 0.100000000000000E-014
 0.104626201791801E-014
 0.100000000000000E-014
 0.100000000000000E-014
 0.272691856154198E+000
 0.100000000000000E-014
 0.291021159584637E+000
 0.100000000000000E-014
 0.100000000000000E-014
 0.100000000000000E-014
 0.100000000000000E-014
 0.502302693747354E-002
 0.100000000000000E-014
 0.100000000000000E-014
 0.100000000000000E-014
 0.199338956115313E-002
 0.100000000000000E-014
 0.100000000000000E-014
 0.100000000000000E-014
 0.199338956103117E-002
 0.100000000000000E-014
 0.199338956115220E-002
 0.100000000000000E+001
 0.999999999999937E+000
 0.100000000000000E-014
 0.169260244984840E-014
 0.199338956115094E-002
 0.100000000000000E-014
 0.553875903550885E-013
 0.302065267114750E-014
 0.199338956115197E-002
 0.100000000000000E-014
 0.224373220202318E-002
 0.224373220190178E-002
 0.100000000000000E-014
 0.622765742079978E-014
 0.100000000000000E-014
 0.300447370653001E-001
 0.171576442230219E-013
 0.100000000000000E-014
 0.100000000000000E-014
 0.100000000000000E-014
 0.199338956115508E-002
 0.100000000000000E-014
 0.862489571358640E-002
 0.100000000000000E-014
 0.100000000000000E-014
 0.100000000000000E-014
 0.100000000000000E-014
 0.672069752163598E+000
 0.862489571408046E-002
 0.100000000000000E-014
 0.420348905919672E-014
 0.100000000000000E-014
 0.100000000000000E-014
 0.100000000000000E-014
 0.100000000000000E-014
