# vtk DataFile Version 3.0
Unstructured Grid
ASCII
DATASET UNSTRUCTURED_GRID
FIELD FieldData 1
TIME 1 1 float
  0.583125E+02
POINTS          640 double
 0.000000000000000E+000 0.000000000000000E+000 0.000000000000000E+000
 0.100000000000000E+001 0.000000000000000E+000 0.000000000000000E+000
 0.100000000000000E+001 0.100000000000000E+001 0.000000000000000E+000
 0.000000000000000E+000 0.100000000000000E+001 0.000000000000000E+000
 0.125000000000000E+000 0.250000000000000E+000 0.000000000000000E+000
 0.375000000000000E+000 0.250000000000000E+000 0.000000000000000E+000
 0.375000000000000E+000 0.750000000000000E+000 0.000000000000000E+000
 0.125000000000000E+000 0.750000000000000E+000 0.000000000000000E+000
 0.625000000000000E+000 0.250000000000000E+000 0.000000000000000E+000
 0.875000000000000E+000 0.250000000000000E+000 0.000000000000000E+000
 0.875000000000000E+000 0.750000000000000E+000 0.000000000000000E+000
 0.625000000000000E+000 0.750000000000000E+000 0.000000000000000E+000
 0.100000000000000E+001 0.500000000000000E+000 0.000000000000000E+000
 0.000000000000000E+000 0.500000000000000E+000 0.000000000000000E+000
 0.500000000000000E+000 0.000000000000000E+000 0.000000000000000E+000
 0.125000000000000E+000 0.500000000000000E+000 0.000000000000000E+000
 0.000000000000000E+000 0.750000000000000E+000 0.000000000000000E+000
 0.000000000000000E+000 0.250000000000000E+000 0.000000000000000E+000
 0.000000000000000E+000 0.875000000000000E+000 0.000000000000000E+000
 0.000000000000000E+000 0.125000000000000E+000 0.000000000000000E+000
 0.625000000000000E-001 0.812500000000000E+000 0.000000000000000E+000
 0.125000000000000E+000 0.375000000000000E+000 0.000000000000000E+000
 0.125000000000000E+000 0.625000000000000E+000 0.000000000000000E+000
 0.500000000000000E+000 0.100000000000000E+001 0.000000000000000E+000
 0.250000000000000E+000 0.100000000000000E+001 0.000000000000000E+000
 0.125000000000000E+000 0.100000000000000E+001 0.000000000000000E+000
 0.729166666666667E-001 0.885416666666667E+000 0.000000000000000E+000
 0.000000000000000E+000 0.625000000000000E+000 0.000000000000000E+000
 0.625000000000000E-001 0.562500000000000E+000 0.000000000000000E+000
 0.375000000000000E+000 0.500000000000000E+000 0.000000000000000E+000
 0.375000000000000E+000 0.100000000000000E+001 0.000000000000000E+000
 0.250000000000000E+000 0.000000000000000E+000 0.000000000000000E+000
 0.625000000000000E-001 0.187500000000000E+000 0.000000000000000E+000
 0.143518518518519E+000 0.775462962962963E-001 0.000000000000000E+000
 0.156250000000000E+000 0.156250000000000E+000 0.000000000000000E+000
 0.729166666666667E-001 0.114583333333333E+000 0.000000000000000E+000
 0.125000000000000E+000 0.000000000000000E+000 0.000000000000000E+000
 0.250000000000000E+000 0.250000000000000E+000 0.000000000000000E+000
 0.375000000000000E+000 0.000000000000000E+000 0.000000000000000E+000
 0.187500000000000E+000 0.218750000000000E+000 0.000000000000000E+000
 0.312500000000000E+000 0.762453007518797E-001 0.000000000000000E+000
 0.270259392278489E+000 0.159169301283415E+000 0.000000000000000E+000
 0.365310977506407E+000 0.155367112827996E+000 0.000000000000000E+000
 0.312500000000000E+000 0.216265619131990E+000 0.000000000000000E+000
 0.500000000000000E+000 0.189389379011873E+000 0.000000000000000E+000
 0.426456487258648E+000 0.196919158251449E+000 0.000000000000000E+000
 0.451620395371675E+000 0.941243892751461E-001 0.000000000000000E+000
 0.381804756165356E+000 0.871724813114945E-001 0.000000000000000E+000
 0.437500000000000E+000 0.273708879364394E-001 0.000000000000000E+000
 0.000000000000000E+000 0.375000000000000E+000 0.000000000000000E+000
 0.625000000000000E-001 0.312500000000000E+000 0.000000000000000E+000
 0.250000000000000E+000 0.750000000000000E+000 0.000000000000000E+000
 0.158482142857143E+000 0.851934523809524E+000 0.000000000000000E+000
 0.210861885404568E+000 0.921875000000000E+000 0.000000000000000E+000
 0.136017278952732E+000 0.925863358051789E+000 0.000000000000000E+000
 0.625000000000000E-001 0.687500000000000E+000 0.000000000000000E+000
 0.250000000000000E+000 0.437500000000000E+000 0.000000000000000E+000
 0.247528011619582E+000 0.839830719156545E+000 0.000000000000000E+000
 0.312500000000000E+000 0.796669265575374E+000 0.000000000000000E+000
 0.419664368355990E+000 0.875000000000000E+000 0.000000000000000E+000
 0.313183356674252E+000 0.918387829019328E+000 0.000000000000000E+000
 0.312500000000000E+000 0.100000000000000E+001 0.000000000000000E+000
 0.380617553087688E+000 0.931527612480385E+000 0.000000000000000E+000
 0.187500000000000E+000 0.785936956899548E+000 0.000000000000000E+000
 0.350379273974835E+000 0.857317802397078E+000 0.000000000000000E+000
 0.228046514569416E+000 0.817347524546315E-001 0.000000000000000E+000
 0.187500000000000E+000 0.312500000000000E+000 0.000000000000000E+000
 0.625000000000000E-001 0.437500000000000E+000 0.000000000000000E+000
 0.197916666666667E+000 0.385416666666667E+000 0.000000000000000E+000
 0.375000000000000E+000 0.375000000000000E+000 0.000000000000000E+000
 0.750000000000000E+000 0.000000000000000E+000 0.000000000000000E+000
 0.625000000000000E-001 0.959280303030303E+000 0.000000000000000E+000
 0.234375000000000E+000 0.562500000000000E+000 0.000000000000000E+000
 0.187500000000000E+000 0.687500000000000E+000 0.000000000000000E+000
 0.193892045454545E+000 0.618607954545455E+000 0.000000000000000E+000
 0.375000000000000E+000 0.625000000000000E+000 0.000000000000000E+000
 0.283775504647110E+000 0.640801989544002E+000 0.000000000000000E+000
 0.281298714846257E+000 0.504888901855782E+000 0.000000000000000E+000
 0.331282779604339E+000 0.562500000000000E+000 0.000000000000000E+000
 0.338845441361880E+000 0.687500000000000E+000 0.000000000000000E+000
 0.500000000000000E+000 0.775815254846569E+000 0.000000000000000E+000
 0.625000000000000E-001 0.407196969696970E-001 0.000000000000000E+000
 0.328125000000000E+000 0.437500000000000E+000 0.000000000000000E+000
 0.284143518518519E+000 0.340856481481482E+000 0.000000000000000E+000
 0.312500000000000E+000 0.278356481481482E+000 0.000000000000000E+000
 0.625000000000000E+000 0.500000000000000E+000 0.000000000000000E+000
 0.410581328448014E+000 0.312500000000000E+000 0.000000000000000E+000
 0.543730092976870E+000 0.258404709955172E+000 0.000000000000000E+000
 0.625000000000000E+000 0.375000000000000E+000 0.000000000000000E+000
 0.500000000000000E+000 0.404784409423024E+000 0.000000000000000E+000
 0.590394028376448E+000 0.312500000000000E+000 0.000000000000000E+000
 0.467392923590959E+000 0.261422480241605E+000 0.000000000000000E+000
 0.508234229043035E+000 0.327522431406248E+000 0.000000000000000E+000
 0.625000000000000E+000 0.000000000000000E+000 0.000000000000000E+000
 0.537311919648379E+000 0.110523699730938E+000 0.000000000000000E+000
 0.750000000000000E+000 0.250000000000000E+000 0.000000000000000E+000
 0.593146640296986E+000 0.172723366619635E+000 0.000000000000000E+000
 0.623771215502605E+000 0.890722450407200E-001 0.000000000000000E+000
 0.687500000000000E+000 0.454068088573020E-001 0.000000000000000E+000
 0.793069391389776E+000 0.125000000000000E+000 0.000000000000000E+000
 0.695513657869308E+000 0.162768437982326E+000 0.000000000000000E+000
 0.687500000000000E+000 0.250000000000000E+000 0.000000000000000E+000
 0.875000000000000E+000 0.500000000000000E+000 0.000000000000000E+000
 0.727921748554044E+000 0.101601148842529E+000 0.000000000000000E+000
 0.759582972952604E+000 0.183381972603444E+000 0.000000000000000E+000
 0.875000000000000E+000 0.375000000000000E+000 0.000000000000000E+000
 0.718750000000000E+000 0.343750000000000E+000 0.000000000000000E+000
 0.697916666666667E+000 0.437500000000000E+000 0.000000000000000E+000
 0.750000000000000E+000 0.572048611111111E+000 0.000000000000000E+000
 0.787123226950355E+000 0.408133865248227E+000 0.000000000000000E+000
 0.804687500000000E+000 0.320312500000000E+000 0.000000000000000E+000
 0.700214460784314E+000 0.513965482026144E+000 0.000000000000000E+000
 0.783021635712153E+000 0.493366127722916E+000 0.000000000000000E+000
 0.625000000000000E+000 0.625000000000000E+000 0.000000000000000E+000
 0.848380638879200E+000 0.437500000000000E+000 0.000000000000000E+000
 0.562500000000000E+000 0.404604515401992E-001 0.000000000000000E+000
 0.875000000000000E+000 0.625000000000000E+000 0.000000000000000E+000
 0.750000000000000E+000 0.750000000000000E+000 0.000000000000000E+000
 0.697046765904942E+000 0.621060933265583E+000 0.000000000000000E+000
 0.200520833333333E+000 0.494791666666667E+000 0.000000000000000E+000
 0.429642360217793E+000 0.800955091165693E+000 0.000000000000000E+000
 0.453073336954457E+000 0.687500000000000E+000 0.000000000000000E+000
 0.548183885155829E+000 0.693587592964698E+000 0.000000000000000E+000
 0.750000000000000E+000 0.100000000000000E+001 0.000000000000000E+000
 0.573843760532799E+000 0.437500000000000E+000 0.000000000000000E+000
 0.500000000000000E+000 0.550126792242997E+000 0.000000000000000E+000
 0.511972906944656E+000 0.477455600833011E+000 0.000000000000000E+000
 0.437507615834863E+000 0.452402202857321E+000 0.000000000000000E+000
 0.546458141439317E+000 0.614345103225503E+000 0.000000000000000E+000
 0.571440414895569E+000 0.547357897962524E+000 0.000000000000000E+000
 0.450991397292447E+000 0.610087136082382E+000 0.000000000000000E+000
 0.875000000000000E+000 0.000000000000000E+000 0.000000000000000E+000
 0.100000000000000E+001 0.250000000000000E+000 0.000000000000000E+000
 0.100000000000000E+001 0.375000000000000E+000 0.000000000000000E+000
 0.687500000000000E+000 0.700324699898860E+000 0.000000000000000E+000
 0.812500000000000E+000 0.687500000000000E+000 0.000000000000000E+000
 0.804621866531165E+000 0.617121866531165E+000 0.000000000000000E+000
 0.825181931429427E+000 0.549770415540467E+000 0.000000000000000E+000
 0.100000000000000E+001 0.625000000000000E+000 0.000000000000000E+000
 0.100000000000000E+001 0.750000000000000E+000 0.000000000000000E+000
[...]
CELL_DATA         1212
SCALARS tdens double 1
LOOKUP_TABLE default
 0.135231199552738E-010
 0.518310616244790E-011
 0.704820925995810E-011
 0.691556376037924E-011
 0.919120168658711E-010
 0.211566481620560E-009
 0.799202290386807E-010
 0.983883944066918E-010
 0.392971973780818E-001
 0.317835673581718E-001
 0.748065094806002E-001
 0.141234309926604E+000
 0.398739229903650E-011
 0.349896603106476E-011
 0.274271289136627E-011
 0.304677562840323E-011
 0.510091281011240E-011
 0.134716507067130E-010
 0.701607713462369E-011
 0.686212192809239E-011
 0.666036369502501E-011
 0.112351801666940E-010
 0.109758699340715E-010
 0.904079299311758E-011
 0.235473854155782E-010
 0.141947972272991E-010
 0.160223724061517E-010
 0.174528027445907E-010
 0.177103754130563E-008
 0.620318906347160E-009
 0.194337880616173E-009
 0.584932558082286E-009
 0.256906173905517E-001
 0.429635370148050E+000
 0.457537762486109E-002
 0.108424036717678E+000
 0.237996792919664E-011
 0.212150291590301E-011
 0.230949517311173E-011
 0.222915104242714E-011
 0.236125927018771E-009
 0.102760036463397E-009
 0.186909440215528E-009
 0.182508028525298E-009
 0.942280247676051E-011
 0.116731329243149E-010
 0.138233672985415E-010
 0.114117185962089E-010
 0.783527760492298E-010
 0.953779085889900E-010
 0.157188459986408E-010
 0.449630848040873E-010
 0.833372112736645E-001
 0.208819994152062E-001
 0.183757382960969E-001
 0.100352776787280E+000
 0.387834602272530E-010
 0.366147112458150E-010
 0.431857902616128E-010
 0.391067500403764E-010
 0.355543752645675E-001
 0.114020122586311E+000
 0.175549273745000E+001
 0.383466540060583E+000
 0.338071102610496E-011
 0.249334937114196E-011
 0.251393752616898E-011
 0.265113412533311E-011
 0.363132150319242E-011
 0.401632037429262E-011
 0.460840824623408E-011
 0.409652373526646E-011
 0.429998596373136E-011
 0.583389211717016E-011
 0.254963011147602E-011
 0.333420518402525E-011
 0.244351987973308E-003
 0.118289489879678E-001
 0.138400006109380E-004
 0.737573605648602E-003
 0.175323589456255E-009
 0.349602597019813E-010
 0.132678293022403E-009
 0.857148088748911E-010
 0.279734017162422E-011
 0.235522037937843E-011
 0.213271905819388E-011
 0.228135790709934E-011
 0.238022994623229E-001
 0.949241341654620E-001
 0.556710596944713E-002
 0.375944389104774E-001
 0.563178977461532E-011
 0.476270615252129E-011
 0.486486534042559E-011
 0.515682657583373E-011
 0.330099033987074E-011
 0.251127078844022E-011
 0.256510963033775E-011
 0.267451755808728E-011
 0.193007311612539E-010
 0.237315952474809E-010
 0.434881677390448E-010
 0.255583551403798E-010
 0.531058828783870E-011
 0.455716297866418E-011
 0.592904838100672E-011
 0.513100310572083E-011
 0.312666313524557E-001
 0.127022438442549E-001
 0.264193755241983E+000
 0.643250749140540E-004
 0.217229338972373E-010
 0.468225676840404E-011
 0.623248154956540E-011
 0.759507305497340E-011
 0.139353487578449E-009
 0.100911501240706E-008
 0.270943245175075E-009
 0.216889755484014E-009
 0.127312148868435E-010
 0.671264966917300E-011
 0.830309137865781E-011
 0.878510531016526E-011
 0.114875340848408E-010
 0.464337887471125E-011
 0.456155531182310E-011
 0.565334672790177E-011
 0.662764518687509E-002
 0.590188084827175E-001
 0.531962355938337E-002
 0.288409196370699E-001
 0.614883373469368E-010
 0.314291063523187E-010
 0.865673812633565E-010
 0.599605191916989E-010
 0.126291403438231E-009
 0.349657409051267E-009
 0.118328744445386E-009
 0.141436971558726E-009
 0.577489191986866E-011
 0.732225329011276E-011
 0.102180658768766E-010
 0.767296708336583E-011
 0.386227757938573E-011
 0.248585350184408E-011
 0.325807054855216E-011
 0.304781743789067E-011
 0.193015993307782E-010
 0.977121524221541E-011
 0.362082411295477E-010
 0.171558777937358E-010
 0.920825344131634E-011
 0.147848617740573E-010
 0.135021119612403E-010
 0.122050278648190E-010
 0.238571215970088E-011
 0.212326482561159E-011
 0.232359801115810E-011
 0.224486775948629E-011
 0.337671493650600E-011
 0.252368604107731E-011
 0.250444742784731E-011
 0.266313073368671E-011
 0.469248681011768E-011
 0.413423623930414E-011
 0.254129505411338E-011
 0.327719402040852E-011
 0.929809796767515E+000
 0.423315408036087E+000
 0.418085268923495E-002
 0.648138201539638E+000
 0.654823871342734E-005
 0.157641071555197E-004
 0.338956859397895E+001
 0.913862143936018E-005
 0.312060996495352E+000
 0.777195498739600E-001
 0.534226641801671E+000
 0.362132680271015E-001
 0.432185667929950E-010
 0.509526521731978E-010
 0.619111589971641E-010
 0.511321517227378E-010
 0.363281382596252E-010
 0.973616058669052E-011
 0.201036551838748E-010
 0.175235313211299E-010
 0.766301699906348E-011
 0.665450330394349E-011
 0.129647631335441E-010
 0.851020865418987E-011
 0.494146051502694E-011
 0.477744478669478E-011
 0.566690867030038E-011
 0.519720894365305E-011
 0.307792228158220E-010
 0.485895025946745E-010
 0.234111190292206E-010
 0.313700150839887E-010
 0.593414808789596E-011
 0.455675016284043E-011
 0.529742300856439E-011
 0.512984064387083E-011
 0.140992878682930E-010
 0.221365882156877E-010
 0.171395063390762E-010
 0.176855962227233E-010
 0.391302908075347E-011
 0.462680768522656E-011
 0.597199137572262E-011
 0.481902287009131E-011
 0.314595327411575E-011
 0.353549442195798E-011
 0.243440887241902E-011
 0.288712152917154E-011
 0.598656438084579E-011
 0.972795932736506E-011
 0.749720706740363E-011
 0.754175877060114E-011
 0.101531198173560E-010
 0.154844093988676E-010
 0.163277946774774E-010
 0.136895544404335E-010
 0.361398728559810E-010
 0.473898722752755E-010
 0.431410612715577E-010
 0.424832007967174E-010
 0.363720609146697E-010
 0.709530311455194E-010
 0.101510571318875E-009
 0.669954344088071E-010
 0.551134134057594E-008
 0.836452202395462E-009
 0.775706847246582E-009
 0.870356268127386E-009
 0.846231328452959E-009
 0.219158977846800E-008
 0.326726734208773E-008
 0.283175000588088E-008
 0.518212436827053E-009
 0.155397835313343E-008
 0.235251693748119E-009
 0.544516904883745E-009
 0.527716862302558E-011
 0.413818486841107E-011
 0.629908500601967E-011
 0.506243190450661E-011
 0.224387425595268E-008
 0.155682478120010E-008
 0.408515943461323E-009
 0.912679816064315E-009
 0.250306721927646E-009
 0.133223559265691E-008
 0.559788480739271E-009
 0.554464389960054E-009
 0.159928383559964E-010
 0.229939227977937E-010
 0.233081657380291E-010
 0.202002039767750E-010
 0.684809924058584E-010
 0.400554223866858E-010
 0.831714045542851E-010
 0.641001924280304E-010
 0.282697413515134E-010
 0.327735437165150E-010
 0.366646019068417E-010
 0.313264669687986E-010
 0.154782430549665E-006
 0.469770736681877E-006
 0.788250816224465E-005
 0.277750085992792E-006
 0.561886902018277E-009
 0.131914022447077E-009
 0.428027442451179E-009
 0.469546011050220E-009
 0.155752308495423E-009
 0.365554677967766E-009
 0.120838588459214E-009
 0.161647207300352E-009
 0.237388501524299E-009
 0.248451389047684E-009
 0.878217539851320E-010
 0.211475731011327E-009
 0.206905588799934E-010
 0.227921052761803E-010
 0.157619022762718E-010
 0.195633607695261E-010
 0.846170284003560E-010
 0.257079804489375E-009
 0.141376520406342E-009
 0.133238091436002E-009
 0.813104774937973E-009
 0.477116568924295E-008
 0.542339473257588E-008
 0.477531550200215E-008
 0.487918761142163E-010
 0.798738959308937E-010
 0.393559370210023E-010
 0.500267518583803E-010
 0.354366333380689E-011
 0.315839845728713E-011
 0.243839500220542E-011
 0.289508793735332E-011
 0.264761525772298E-010
 0.361579489722163E-010
 0.294486988196196E-010
 0.301096043989514E-010
 0.629023120238475E-010
 0.891891325212131E-010
 0.535625511207994E-010
 0.641595900571953E-010
 0.288931479386615E-010
 0.330071040412243E-010
 0.323196216321993E-010
 0.316862180768199E-010
 0.346082871524774E-010
 0.443094396155870E-010
 0.351572716503962E-010
 0.367760224960546E-010
 0.293593082084931E-011
 0.394422035660563E-011
 0.363612981682269E-011
 0.338548279256828E-011
 0.374068365477565E-011
 0.279672222458767E-011
 0.345460645559179E-011
 0.304164157245153E-011
 0.195209094557096E-010
 0.631114383781840E-011
 0.445095069195492E-011
 0.686160766017170E-011
 0.150633859627750E-009
 0.113377042267943E-009
 0.312684507650049E-010
 0.748085839289251E-010
 0.435950843250868E-010
 0.315656423087503E-010
 0.208776679294167E-010
 0.308387837740967E-010
 0.765498835516390E-011
 0.125687050701022E-010
 0.664939418199781E-011
 0.846459471764115E-011
 0.126953666018298E+001
 0.548942966422650E+000
 0.115036009498703E+000
 0.904248264258218E+000
 0.156471386600199E-010
 0.241195207038311E-010
 0.191707796365588E-010
 0.182003151151943E-010
 0.389310409731109E-011
 0.572242411956599E-011
 0.463173491818350E-011
 0.472887957978720E-011
 0.121443525737851E-010
 0.775058915980383E-011
 0.659693983336038E-011
 0.842363490383065E-011
 0.382183118147464E-011
 0.284955005564771E-011
 0.355980665618354E-011
 0.327639659512310E-011
 0.115966581429444E-010
 0.446102608559921E-011
 0.465959141395141E-011
 0.561554295118679E-011
 0.109711503295818E+000
 0.193606319547940E-001
 0.274644862525679E+000
 0.326004876073159E-001
 0.578230993238070E-002
 0.935707693940364E-001
 0.564092302957071E-002
 0.378844006529667E-001
 0.562181053066883E-009
 0.253400475685875E-008
 0.183597150041468E-008
 0.221939571404670E-008
 0.716312723657564E-010
 0.415589952780957E-010
 0.643239006071425E-010
 0.593135528234165E-010
 0.336000474272677E-009
 0.126993746282781E-009
 0.626958546940812E-009
 0.391824840175504E-009
 0.146196811645239E-009
 0.508248404687808E-009
 0.844094501686242E-009
 0.457238054361865E-009
 0.366220725422059E-010
 0.418372227457275E-010
 0.298395383582139E-010
 0.367836078254258E-010
 0.119604346107576E-009
 0.104761172445282E-009
 0.265365746430905E-009
 0.126852112133440E-009
 0.432213339783410E-010
 0.397557842597583E-010
 0.669372826454980E-010
 0.457333799352282E-010
 0.466780546625933E-010
 0.726605701962361E-010
 0.529036121729313E-010
 0.549082810250375E-010
 0.320680867996035E-010
 0.220683767489801E-010
 0.285590361281982E-010
 0.277483685407863E-010
 0.229656927013099E-010
 0.315191174537194E-010
 0.267688516609970E-010
 0.256393663621189E-010
 0.147225962304873E-008
 0.348018717387220E-008
 0.364292063860365E-009
 0.887511631697540E-009
 0.135502165922007E-009
 0.249191435618693E-009
 0.119924925030129E-008
 0.208703946295157E-009
 0.144103680315472E-008
 0.200456592066560E-009
 0.410989003528744E-009
 0.423019905615103E-009
 0.484418349105794E-010
 0.752142108103336E-010
 0.778137782812658E-010
 0.697890111391042E-010
 0.270565929353595E-010
 0.223804018516839E-010
 0.493794719417667E-010
 0.296090207193763E-010
 0.134368349679079E+001
 0.878236809908535E+000
 0.917940260813456E-002
 0.161475697379752E+001
 0.279735348740345E-001
 0.594079561935235E-002
 0.188134275026574E+000
 0.514316721317256E-001
 0.252585002794315E-010
 0.342350704723348E-010
 0.259807211250284E-010
 0.278006282226295E-010
 0.182721249086282E-001
 0.211273454498459E-001
 0.719600278239689E-001
 0.109884746257132E+000
 0.421270994293849E-001
 0.856218846153621E-001
 0.448292941807514E-001
 0.304223107851339E-001
 0.270832905287774E-001
 0.644050127473943E+000
 0.322166748579919E+000
 0.443230523206358E+000
 0.996512707999358E-001
 0.327636283589225E+000
 0.448142109332324E+000
 0.563259220249786E+000
 0.609738866123291E-010
 0.133062120584236E-009
 0.800496589869528E-010
 0.819402280227258E-010
 0.211909085385660E-011
 0.241996602773602E-011
 0.233776130006722E-011
 0.225393183627714E-011
 0.294827032759120E-011
 0.212600741340015E-011
 0.236898938343456E-011
 0.229144908557779E-011
 0.977867597160108E-001
 0.855145331160768E-001
 0.212462657023817E-001
 0.926860700514389E-001
 0.599872723122279E-011
 0.411391897463239E-011
 0.523428022644019E-011
 0.495947988680682E-011
 0.140262990950828E-001
 0.296034942623417E+000
 0.132117097513499E-001
 0.136652112489401E-001
 0.455980220481638E-001
 0.278709719756324E-001
 0.206685279141516E+000
 0.167707061100638E-001
 0.802483149064631E-002
 0.608857343758716E-002
 0.100040229623111E+000
 0.331695224345199E-001
 0.519038735307569E-002
 0.900055469964563E-001
 0.533072642239440E-002
 0.355535789032139E-001
 0.535999899277493E-005
 0.103353222990596E-004
 0.113089898487787E-004
 0.121024411746130E-004
 0.306047778933104E-001
 0.179044854093719E-001
 0.851633369532020E+000
 0.997081713282738E-001
 0.808758851635060E+000
 0.280875608917466E+000
 0.186265803081289E-001
 0.667737643376373E+000
 0.347028394399211E-003
 0.137553952043191E-002
 0.135378534945569E+001
 0.204920371166973E-001
 0.110476460409510E-002
 0.639787079468710E-001
 0.267287562148273E+000
 0.310504335650422E-001
 0.228203522247698E-001
 0.710934079746230E-001
 0.685821412666129E+000
 0.450363520878757E-001
 0.111319757083391E-003
 0.573795546502369E-001
 0.582438522229895E-001
 0.177037111203242E-001
 0.109967745223330E-001
 0.147684886728117E+001
 0.906746647947085E+000
 0.156714240333401E+001
 0.192224619932816E+001
 0.117865593699179E-001
 0.230073869760536E+001
 0.232575976548200E+001
 0.347634352030518E+000
 0.359109061088286E-001
 0.245022176130621E+000
 0.298017919426010E+000
 0.525582178448115E-002
 0.182457277424735E+000
 0.605420062276500E-002
 0.370226165384830E-001
 0.549615117495692E-005
 0.151161954453121E-004
 0.264591115556271E+000
 0.542404884466055E-005
 0.955863458683817E-009
 0.845801640010082E-009
 0.837625201284988E-008
 0.969212426470531E-009
 0.400760237707362E-011
 0.361454368328164E-011
 0.459253331646894E-011
 0.408288693103723E-011
 0.248075164084037E-011
 0.381834096576416E-011
 0.324257682290016E-011
 0.303498803641054E-011
 0.130659114836717E-001
 0.237913714645857E-001
 0.346597524879195E-004
 0.129223430570288E-001
 0.609760452288361E+000
 0.216625957709879E+000
 0.187992522130010E+000
 0.239154679730477E+000
 0.193280774199629E-004
 0.893775513324083E+000
 0.317146833179588E-001
 0.101767273140864E+000
 0.577024322445029E+000
 0.146575030874375E+001
 0.359960851707673E+000
 0.716468542386446E+000
 0.226290223049011E-002
 0.752102635836949E-002
 0.313236154956056E-001
 0.102166550527418E-001
 0.137451128478282E+001
 0.649705939803289E-001
 0.158994575961846E-001
 0.249097646303677E+000
 0.344873481009820E+001
 0.151366888860593E-005
 0.337079620555164E+001
 0.461392602247829E+001
 0.603542934813023E-006
 0.568308163283872E-008
 0.384149617048679E-008
 0.478782349835008E-008
 0.229221800442734E+001
 0.114451377069103E-003
 0.481150622087106E-005
 0.667874807139567E-005
 0.688310023447905E-008
 0.387206872683785E-008
 0.845933443309378E-009
 0.435845210925907E-008
 0.437101530281768E-009
 0.384355556058405E-008
 0.650241064013243E-009
 0.660160509759183E-009
 0.949164285593050E-006
 0.278235991055021E-005
 0.971239775430165E-007
 0.203201513478405E-005
 0.180837435663712E-004
 0.148295123438941E+000
 0.308918654128528E-004
 0.641145241722339E-004
 0.103522405203629E-001
 0.831375357107528E-002
 0.982030307123111E+000
 0.130309394563817E+000
 0.923732666907905E-005
 0.734409292683188E-005
 0.526123898607885E-005
 0.730829424113809E-005
 0.230053065588165E+000
 0.214865247182038E-003
 0.723812041097063E-004
 0.772561930828968E-004
 0.112737561292205E-002
 0.189856994540176E+001
 0.345890409614698E-004
 0.430548146702951E-004
 0.308232126378850E-005
 0.410233902545879E+001
 0.321656605566569E+001
 0.437573296376592E+001
 0.149273083630538E-005
 0.108972484842582E-006
 0.106497014112742E-006
 0.869051750570691E-007
 0.460399453358202E-006
 0.153024950379036E-006
 0.681489877281208E-005
 0.242439523640316E-006
 0.282283783704901E-005
 0.968207260451800E-006
 0.954443610605438E-007
 0.192602872150530E-005
 0.369612124431770E-005
 0.425424260947280E-005
 0.445567209224768E+001
 0.189547865043363E-005
 0.998744132296613E-011
 0.806935215374238E-011
 0.159581493698640E-010
 0.104745140332781E-010
 0.621838321729114E-010
 0.103075569002172E-009
 0.137718432851019E-009
 0.971329034685935E-010
 0.362738937218120E-010
 0.545382420596191E-010
 0.498900130618451E-010
 0.467668230019838E-010
 0.510847528666119E-010
 0.352655015985037E-010
 0.376434665983531E-010
 0.393530625812416E-010
 0.135033433770768E-008
 0.108671617791317E-008
 0.217356680332680E-009
 0.116397524505508E-008
 0.209350675905350E-009
 0.146935865865341E-008
 0.314662476843290E-009
 0.323160915446139E-009
 0.461566554151522E-010
 0.570765419804690E-010
 0.393640395051661E-010
 0.469166883570205E-010
 0.426960395612786E-009
 0.273676851831358E-008
 0.406282037544339E-008
 0.264701052490708E-008
 0.128687992681889E-010
 0.115978810471686E-010
 0.201701690131992E-010
 0.141288758238836E-010
 0.214121877822243E+000
 0.752446378217063E-001
 0.184344900459572E+000
 0.167437568287238E+000
 0.396679795579553E-010
 0.727438097099363E-010
 0.483605849114611E-010
 0.500883455733960E-010
 0.279589102917409E-011
 0.481141730914205E-011
 0.491227823543326E-011
 0.382713686711754E-011
 0.270527501113297E-008
 0.231327144107978E-009
 0.101384279533015E-008
 0.435775848284873E-009
 0.304827327082171E-010
 0.371958301820159E-010
 0.256200774188628E-010
 0.310366981443255E-010
 0.773015931365194E-010
 0.785558074759570E-010
 0.418087578208562E-010
 0.690734355456530E-010
 0.204399430177240E-009
 0.116150772728915E-008
 0.184819387479683E-009
 0.203476672864712E-009
 0.590213939744593E-002
 0.538885633984653E-001
 0.713888700189946E-002
 0.331290232836854E-001
 0.368866053119347E+000
 0.252356501599624E+001
 0.822918414912847E+000
 0.113113537580974E+001
 0.226668643586520E-001
 0.294376858000722E+000
 0.409768071197458E+000
 0.380800889498446E+000
 0.152895738891581E-010
 0.228929284393117E-010
 0.207996998391196E-010
 0.184799937643855E-010
 0.663473700363455E-010
 0.356417596058405E-010
 0.318233424868552E-010
 0.393095299709261E-010
 0.700045633108614E-010
 0.309765551125022E-010
 0.298406657597824E-010
 0.372609939974249E-010
 0.166568969534422E-008
 0.247366570969896E-009
 0.163749388027406E-008
 0.129455794948267E-008
 0.656603347321520E-001
 0.111242697239777E-002
 0.140792304398940E-001
 0.112816652825977E-001
 0.721569492283999E+000
 0.459786363195074E-001
 0.372605596832937E+000
 0.708205907285429E+000
 0.220191485449563E+000
 0.514269411215306E+000
 0.392028568056536E+000
 0.586801070078512E+000
 0.213554185142870E-011
 0.277988808622902E-011
 0.233799529192162E-011
 0.229244132170592E-011
 0.447407968616434E-011
 0.703109607959915E-011
 0.217221712961328E-010
 0.708906888791824E-011
 0.143055522923341E-001
 0.148828053893076E-001
 0.200106574009017E-001
 0.822951506211320E-003
 0.202935831722225E-001
 0.960032577189062E-002
 0.123524166374122E-001
 0.294347072293151E-002
 0.163101497096731E+000
 0.406364712786732E-001
 0.582293520371549E-001
 0.972440460898024E-001
 0.948533157131002E-002
 0.706989311635958E-002
 0.423207411119839E-001
 0.654615505602802E-001
 0.137991412386071E-001
 0.481923884476018E-001
 0.632324387334497E+000
 0.131730317831318E+000
 0.320306204143108E-001
 0.205208425312052E+000
 0.655238909778688E-002
 0.624424641385612E-001
 0.146206871236343E+000
 0.793189532025039E-001
 0.417841418280458E-001
 0.655708671522397E-001
 0.107929296735782E-001
 0.991116367594400E-001
 0.275582093322648E+000
 0.190493738290620E-001
 0.748514515399257E-002
 0.559757832175711E+000
 0.654884105315906E+000
 0.111936334307728E+001
 0.109040857164607E+000
 0.405421547839291E-004
 0.210459159990892E+000
 0.122935207702958E+000
 0.433554272235315E-001
 0.218465134963995E+000
 0.222521997757841E-001
 0.917533638084329E-001
 0.263785156762859E-010
 0.578747850845180E-010
 0.141267024305263E-010
 0.290830523031930E-010
 0.594547806114351E-006
 0.316269536773102E-006
 0.634982578826508E-008
 0.549645719624075E-006
 0.278003762696474E-002
 0.182893051598152E-002
 0.251532592706141E-001
 0.976744891095637E-002
 0.156804708753186E-001
 0.395129810830069E-001
 0.173872359254113E-001
 0.152049939099982E-003
 0.331995954566063E-010
 0.291004583362656E-010
 0.334253929763291E-010
 0.319961481371894E-010
 0.365000445290248E-010
 0.340544415359014E-010
 0.283899392432725E-010
 0.321111735838065E-010
 0.193312319338289E-002
 0.854515065157213E-001