# vtk DataFile Version 3.0
Unstructured Grid
ASCII
DATASET UNSTRUCTURED_GRID
FIELD FieldData 1
TIME 1 1 float
  0.335625E+02
POINTS          640 double
 0.000000000000000E+000 0.000000000000000E+000 0.000000000000000E+000
 0.100000000000000E+001 0.000000000000000E+000 0.000000000000000E+000
 0.100000000000000E+001 0.100000000000000E+001 0.000000000000000E+000
 0.000000000000000E+000 0.100000000000000E+001 0.000000000000000E+000
 0.125000000000000E+000 0.250000000000000E+000 0.000000000000000E+000
 0.375000000000000E+000 0.250000000000000E+000 0.000000000000000E+000
 0.375000000000000E+000 0.750000000000000E+000 0.000000000000000E+000
 0.125000000000000E+000 0.750000000000000E+000 0.000000000000000E+000
 0.625000000000000E+000 0.250000000000000E+000 0.000000000000000E+000
 0.875000000000000E+000 0.250000000000000E+000 0.000000000000000E+000
 0.875000000000000E+000 0.750000000000000E+000 0.000000000000000E+000
 0.625000000000000E+000 0.750000000000000E+000 0.000000000000000E+000
 0.100000000000000E+001 0.500000000000000E+000 0.000000000000000E+000
 0.000000000000000E+000 0.500000000000000E+000 0.000000000000000E+000
 0.500000000000000E+000 0.000000000000000E+000 0.000000000000000E+000
 0.125000000000000E+000 0.500000000000000E+000 0.000000000000000E+000
 0.000000000000000E+000 0.750000000000000E+000 0.000000000000000E+000
 0.000000000000000E+000 0.250000000000000E+000 0.000000000000000E+000
 0.000000000000000E+000 0.875000000000000E+000 0.000000000000000E+000
 0.000000000000000E+000 0.125000000000000E+000 0.000000000000000E+000
 0.625000000000000E-001 0.812500000000000E+000 0.000000000000000E+000
 0.125000000000000E+000 0.375000000000000E+000 0.000000000000000E+000
 0.125000000000000E+000 0.625000000000000E+000 0.000000000000000E+000
 0.500000000000000E+000 0.100000000000000E+001 0.000000000000000E+000
 0.250000000000000E+000 0.100000000000000E+001 0.000000000000000E+000
 0.125000000000000E+000 0.100000000000000E+001 0.000000000000000E+000
 0.729166666666667E-001 0.885416666666667E+000 0.000000000000000E+000
 0.000000000000000E+000 0.625000000000000E+000 0.000000000000000E+000
 0.625000000000000E-001 0.562500000000000E+000 0.000000000000000E+000
 0.375000000000000E+000 0.500000000000000E+000 0.000000000000000E+000
 0.375000000000000E+000 0.100000000000000E+001 0.000000000000000E+000
 0.250000000000000E+000 0.000000000000000E+000 0.000000000000000E+000
 0.625000000000000E-001 0.187500000000000E+000 0.000000000000000E+000
 0.143518518518519E+000 0.775462962962963E-001 0.000000000000000E+000
 0.156250000000000E+000 0.156250000000000E+000 0.000000000000000E+000
 0.729166666666667E-001 0.114583333333333E+000 0.000000000000000E+000
 0.125000000000000E+000 0.000000000000000E+000 0.000000000000000E+000
 0.250000000000000E+000 0.250000000000000E+000 0.000000000000000E+000
 0.375000000000000E+000 0.000000000000000E+000 0.000000000000000E+000
 0.187500000000000E+000 0.218750000000000E+000 0.000000000000000E+000
 0.312500000000000E+000 0.762453007518797E-001 0.000000000000000E+000
 0.270259392278489E+000 0.159169301283415E+000 0.000000000000000E+000
 0.365310977506407E+000 0.155367112827996E+000 0.000000000000000E+000
 0.312500000000000E+000 0.216265619131990E+000 0.000000000000000E+000
 0.500000000000000E+000 0.189389379011873E+000 0.000000000000000E+000
 0.426456487258648E+000 0.196919158251449E+000 0.000000000000000E+000
 0.451620395371675E+000 0.941243892751461E-001 0.000000000000000E+000
 0.381804756165356E+000 0.871724813114945E-001 0.000000000000000E+000
 0.437500000000000E+000 0.273708879364394E-001 0.000000000000000E+000
 0.000000000000000E+000 0.375000000000000E+000 0.000000000000000E+000
 0.625000000000000E-001 0.312500000000000E+000 0.000000000000000E+000
 0.250000000000000E+000 0.750000000000000E+000 0.000000000000000E+000
 0.158482142857143E+000 0.851934523809524E+000 0.000000000000000E+000
 0.210861885404568E+000 0.921875000000000E+000 0.000000000000000E+000
 0.136017278952732E+000 0.925863358051789E+000 0.000000000000000E+000
 0.625000000000000E-001 0.687500000000000E+000 0.000000000000000E+000
 0.250000000000000E+000 0.437500000000000E+000 0.000000000000000E+000
 0.247528011619582E+000 0.839830719156545E+000 0.000000000000000E+000
 0.312500000000000E+000 0.796669265575374E+000 0.000000000000000E+000
 0.419664368355990E+000 0.875000000000000E+000 0.000000000000000E+000
 0.313183356674252E+000 0.918387829019328E+000 0.000000000000000E+000
 0.312500000000000E+000 0.100000000000000E+001 0.000000000000000E+000
 0.380617553087688E+000 0.931527612480385E+000 0.000000000000000E+000
 0.187500000000000E+000 0.785936956899548E+000 0.000000000000000E+000
 0.350379273974835E+000 0.857317802397078E+000 0.000000000000000E+000
 0.228046514569416E+000 0.817347524546315E-001 0.000000000000000E+000
 0.187500000000000E+000 0.312500000000000E+000 0.000000000000000E+000
 0.625000000000000E-001 0.437500000000000E+000 0.000000000000000E+000
 0.197916666666667E+000 0.385416666666667E+000 0.000000000000000E+000
 0.375000000000000E+000 0.375000000000000E+000 0.000000000000000E+000
 0.750000000000000E+000 0.000000000000000E+000 0.000000000000000E+000
 0.625000000000000E-001 0.959280303030303E+000 0.000000000000000E+000
 0.234375000000000E+000 0.562500000000000E+000 0.000000000000000E+000
 0.187500000000000E+000 0.687500000000000E+000 0.000000000000000E+000
 0.193892045454545E+000 0.618607954545455E+000 0.000000000000000E+000
 0.375000000000000E+000 0.625000000000000E+000 0.000000000000000E+000
 0.283775504647110E+000 0.640801989544002E+000 0.000000000000000E+000
 0.281298714846257E+000 0.504888901855782E+000 0.000000000000000E+000
 0.331282779604339E+000 0.562500000000000E+000 0.000000000000000E+000
 0.338845441361880E+000 0.687500000000000E+000 0.000000000000000E+000
 0.500000000000000E+000 0.775815254846569E+000 0.000000000000000E+000
 0.625000000000000E-001 0.407196969696970E-001 0.000000000000000E+000
 0.328125000000000E+000 0.437500000000000E+000 0.000000000000000E+000
 0.284143518518519E+000 0.340856481481482E+000 0.000000000000000E+000
 0.312500000000000E+000 0.278356481481482E+000 0.000000000000000E+000
 0.625000000000000E+000 0.500000000000000E+000 0.000000000000000E+000
 0.410581328448014E+000 0.312500000000000E+000 0.000000000000000E+000
 0.543730092976870E+000 0.258404709955172E+000 0.000000000000000E+000
 0.625000000000000E+000 0.375000000000000E+000 0.000000000000000E+000
 0.500000000000000E+000 0.404784409423024E+000 0.000000000000000E+000
 0.590394028376448E+000 0.312500000000000E+000 0.000000000000000E+000
 0.467392923590959E+000 0.261422480241605E+000 0.000000000000000E+000
 0.508234229043035E+000 0.327522431406248E+000 0.000000000000000E+000
 0.625000000000000E+000 0.000000000000000E+000 0.000000000000000E+000
 0.537311919648379E+000 0.110523699730938E+000 0.000000000000000E+000
 0.750000000000000E+000 0.250000000000000E+000 0.000000000000000E+000
 0.593146640296986E+000 0.172723366619635E+000 0.000000000000000E+000
 0.623771215502605E+000 0.890722450407200E-001 0.000000000000000E+000
 0.687500000000000E+000 0.454068088573020E-001 0.000000000000000E+000
 0.793069391389776E+000 0.125000000000000E+000 0.000000000000000E+000
 0.695513657869308E+000 0.162768437982326E+000 0.000000000000000E+000
 0.687500000000000E+000 0.250000000000000E+000 0.000000000000000E+000
 0.875000000000000E+000 0.500000000000000E+000 0.000000000000000E+000
 0.727921748554044E+000 0.101601148842529E+000 0.000000000000000E+000
 0.759582972952604E+000 0.183381972603444E+000 0.000000000000000E+000
 0.875000000000000E+000 0.375000000000000E+000 0.000000000000000E+000
 0.718750000000000E+000 0.343750000000000E+000 0.000000000000000E+000
 0.697916666666667E+000 0.437500000000000E+000 0.000000000000000E+000
 0.750000000000000E+000 0.572048611111111E+000 0.000000000000000E+000
 0.787123226950355E+000 0.408133865248227E+000 0.000000000000000E+000
 0.804687500000000E+000 0.320312500000000E+000 0.000000000000000E+000
 0.700214460784314E+000 0.513965482026144E+000 0.000000000000000E+000
 0.783021635712153E+000 0.493366127722916E+000 0.000000000000000E+000
 0.625000000000000E+000 0.625000000000000E+000 0.000000000000000E+000
 0.848380638879200E+000 0.437500000000000E+000 0.000000000000000E+000
 0.562500000000000E+000 0.404604515401992E-001 0.000000000000000E+000
 0.875000000000000E+000 0.625000000000000E+000 0.000000000000000E+000
 0.750000000000000E+000 0.750000000000000E+000 0.000000000000000E+000
 0.697046765904942E+000 0.621060933265583E+000 0.000000000000000E+000
 0.200520833333333E+000 0.494791666666667E+000 0.000000000000000E+000
 0.429642360217793E+000 0.800955091165693E+000 0.000000000000000E+000
 0.453073336954457E+000 0.687500000000000E+000 0.000000000000000E+000
 0.548183885155829E+000 0.693587592964698E+000 0.000000000000000E+000
 0.750000000000000E+000 0.100000000000000E+001 0.000000000000000E+000
 0.573843760532799E+000 0.437500000000000E+000 0.000000000000000E+000
 0.500000000000000E+000 0.550126792242997E+000 0.000000000000000E+000
 0.511972906944656E+000 0.477455600833011E+000 0.000000000000000E+000
 0.437507615834863E+000 0.452402202857321E+000 0.000000000000000E+000
 0.546458141439317E+000 0.614345103225503E+000 0.000000000000000E+000
 0.571440414895569E+000 0.547357897962524E+000 0.000000000000000E+000
 0.450991397292447E+000 0.610087136082382E+000 0.000000000000000E+000
 0.875000000000000E+000 0.000000000000000E+000 0.000000000000000E+000
 0.100000000000000E+001 0.250000000000000E+000 0.000000000000000E+000
 0.100000000000000E+001 0.375000000000000E+000 0.000000000000000E+000
 0.687500000000000E+000 0.700324699898860E+000 0.000000000000000E+000
 0.812500000000000E+000 0.687500000000000E+000 0.000000000000000E+000
 0.804621866531165E+000 0.617121866531165E+000 0.000000000000000E+000
 0.825181931429427E+000 0.549770415540467E+000 0.000000000000000E+000
 0.100000000000000E+001 0.625000000000000E+000 0.000000000000000E+000
 0.100000000000000E+001 0.750000000000000E+000 0.000000000000000E+000
[...]
CELL_DATA         1212
SCALARS tdens double 1
LOOKUP_TABLE default
 0.506277901611410E-005
 0.210402441182827E-005
 0.278046429018645E-005
 0.274050985365032E-005
 0.251198957396789E-004
 0.498479215823563E-004
 0.223772328718149E-004
 0.266285857334293E-004
 0.296623035532196E+000
 0.639024070835792E-001
 0.150453304472604E+000
 0.309397632334695E+000
 0.160942243171668E-005
 0.146868323529939E-005
 0.116540051165844E-005
 0.128438346893928E-005
 0.209882015483196E-005
 0.509369630787274E-005
 0.279152490496716E-005
 0.274975259197501E-005
 0.258724890650704E-005
 0.413999952576837E-005
 0.406572293862185E-005
 0.341444206069490E-005
 0.792817809293199E-005
 0.510820010814233E-005
 0.567535767060571E-005
 0.611050481366929E-005
 0.288400750571009E-003
 0.115756652472125E-003
 0.493494008389090E-004
 0.116747689156895E-003
 0.238332200447358E-001
 0.402890891625810E+000
 0.134470427170165E-001
 0.766434553864433E-001
 0.101336031975098E-005
 0.898561288597050E-006
 0.977320073754374E-006
 0.947719752860036E-006
 0.549490290896404E-004
 0.277523602864558E-004
 0.463284723003342E-004
 0.446798353266649E-004
 0.355627479571008E-005
 0.433905719890578E-005
 0.503877720856840E-005
 0.424306168337861E-005
 0.277458753461796E-004
 0.300074775202841E-004
 0.585706366526029E-005
 0.155003641312306E-004
 0.637693821867585E+000
 0.234653262356683E+000
 0.137219344865962E+000
 0.275860131859708E+000
 0.118735534753696E-004
 0.113170014439769E-004
 0.129046999307442E-004
 0.119262391061123E-004
 0.116459251470642E+000
 0.109128750483543E+000
 0.130777721153186E+001
 0.111131445956833E+000
 0.135526598515032E-005
 0.104634871037659E-005
 0.106988086455398E-005
 0.111691678190719E-005
 0.148090771633529E-005
 0.163578690509420E-005
 0.185296594199412E-005
 0.166238261588350E-005
 0.163921784304544E-005
 0.193764719012089E-005
 0.105418573775520E-005
 0.129690854978292E-005
 0.346135031062226E+000
 0.364656179255364E+000
 0.452608276234817E-001
 0.506888809641170E+000
 0.505174528168463E-004
 0.121165017167221E-004
 0.432026604758841E-004
 0.276043004182923E-004
 0.114344066165235E-005
 0.986872793375313E-006
 0.903041975650279E-006
 0.957090897500251E-006
 0.263314061890575E-001
 0.140126280775011E+000
 0.117341322681288E-001
 0.424397569959763E-001
 0.227405445752511E-005
 0.193671041027930E-005
 0.200394076476519E-005
 0.209915054205892E-005
 0.134395787866990E-005
 0.105045364779161E-005
 0.107820427124851E-005
 0.112145885288734E-005
 0.675626118405444E-005
 0.829398450698074E-005
 0.142513125605574E-004
 0.884645503693182E-005
 0.212420853553862E-005
 0.184954874610131E-005
 0.237231122008746E-005
 0.206404058674679E-005
 0.254556397811267E-001
 0.592706907613292E-001
 0.166665832652785E+000
 0.451269449156484E-001
 0.751279470570414E-005
 0.192059964713140E-005
 0.240536891388559E-005
 0.286463038575146E-005
 0.427800574997132E-004
 0.250585490528365E-003
 0.834753100305788E-004
 0.672929344646421E-004
 0.472323506031061E-005
 0.261617642485723E-005
 0.317068219566201E-005
 0.335580956371504E-005
 0.439273871510284E-005
 0.191770159833898E-005
 0.187170702800756E-005
 0.230069991361042E-005
 0.656086195739584E-002
 0.510397730618604E-001
 0.570582524412787E-002
 0.289205424693902E-001
 0.200389488295153E-004
 0.109625715845403E-004
 0.288866975788988E-004
 0.198252191053999E-004
 0.306548279013589E-004
 0.676578859452637E-004
 0.286634737727077E-004
 0.334831278480321E-004
 0.227264549731221E-005
 0.281628506775262E-005
 0.380809508465214E-005
 0.293221516579590E-005
 0.156707738950880E-005
 0.104357800140241E-005
 0.133877670588207E-005
 0.125906012774117E-005
 0.704701732363130E-005
 0.377307676254008E-005
 0.124794961567613E-004
 0.632122020781697E-005
 0.348155731580790E-005
 0.540530195549578E-005
 0.491275074050134E-005
 0.448852100716995E-005
 0.101516193390574E-005
 0.901847996008961E-006
 0.982814991917755E-006
 0.952468519591569E-006
 0.137201924433643E-005
 0.107243118985050E-005
 0.105093402575757E-005
 0.112181099526279E-005
 0.166381631736073E-005
 0.163000149855851E-005
 0.105409925056318E-005
 0.126807021848265E-005
 0.407541171961912E+000
 0.139206995476148E+000
 0.735940625766498E-001
 0.370834641665362E+000
 0.132993964661808E+000
 0.133347842156914E+000
 0.186999095304428E+001
 0.132694433676771E+000
 0.193241031558166E+000
 0.642368570242870E-001
 0.141449690943844E+000
 0.345596905496450E-001
 0.129487677298321E-004
 0.147197174729813E-004
 0.172324978143558E-004
 0.147808967815058E-004
 0.124182611604082E-004
 0.374053249727112E-005
 0.727752524560170E-005
 0.638783213629788E-005
 0.298177300682220E-005
 0.260423736178477E-005
 0.482040567368753E-005
 0.328066313807501E-005
 0.200949706429300E-005
 0.193182536361145E-005
 0.226953737498841E-005
 0.209723947293486E-005
 0.102999256878960E-004
 0.158062390605798E-004
 0.812223454098492E-005
 0.105668461478382E-004
 0.236139528379677E-005
 0.184273383909243E-005
 0.211302924831402E-005
 0.205512196775017E-005
 0.514960127126739E-005
 0.767959728116617E-005
 0.612236002823284E-005
 0.628255785907205E-005
 0.158374712791929E-005
 0.185246533321985E-005
 0.233802445154497E-005
 0.192368324417673E-005
 0.129668042875591E-005
 0.144952904197492E-005
 0.102355824058761E-005
 0.119786821521436E-005
 0.235641787929260E-005
 0.368212490631835E-005
 0.289076958324886E-005
 0.290826067564631E-005
 0.382181822819496E-005
 0.561149746493489E-005
 0.595282673107321E-005
 0.501381308607182E-005
 0.116078171621586E-004
 0.145806481197893E-004
 0.135317565223623E-004
 0.132924194474805E-004
 0.125952063758891E-004
 0.231079646330646E-004
 0.333091866403542E-004
 0.221305783079557E-004
 0.650482298646572E-003
 0.155728998655232E-003
 0.142925528693898E-003
 0.158951597361085E-003
 0.215848699272768E-003
 0.566515672573974E-003
 0.622686510614458E-003
 0.553868137086138E-003
 0.109763526047681E-003
 0.275527605146906E-003
 0.601817115381989E-004
 0.117859414231569E-003
 0.209508834615133E-005
 0.167018202079644E-005
 0.246300910779225E-005
 0.200948828753371E-005
 0.503701035732145E-003
 0.323201958437453E-003
 0.123791097423078E-003
 0.242737607618540E-003
 0.652262974249362E-004
 0.284532225756225E-003
 0.143765172642289E-003
 0.138829163316105E-003
 0.576339715237419E-005
 0.792739568716171E-005
 0.801097599202629E-005
 0.708114754856906E-005
 0.214874385307192E-004
 0.129971716481435E-004
 0.249157297710282E-004
 0.198623955635516E-004
 0.944800688161483E-005
 0.106910278167568E-004
 0.117877527937410E-004
 0.103010962024087E-004
 0.623146421264494E-002
 0.117314156696035E-001
 0.567068406823196E-001
 0.645754055025059E-002
 0.173428858802123E-003
 0.406400567300939E-004
 0.116382184446436E-003
 0.128747521875243E-003
 0.436806819532780E-004
 0.979606967385236E-004
 0.363433525523364E-004
 0.468347095225014E-004
 0.550908861486605E-004
 0.580647426083215E-004
 0.243543622781326E-004
 0.501744929760375E-004
 0.720446024931673E-005
 0.785485650247406E-005
 0.567205305209207E-005
 0.686792271650678E-005
 0.236571469581244E-004
 0.601507896315400E-004
 0.375363953542162E-004
 0.351669143422358E-004
 0.148296862350643E-003
 0.572147207402642E-003
 0.630815736926819E-003
 0.574738449098287E-003
 0.151565758502579E-004
 0.235395222906485E-004
 0.126871448983374E-004
 0.155929355483075E-004
 0.145484551316378E-005
 0.130206537638450E-005
 0.102534523927856E-005
 0.120157038546157E-005
 0.894921338523911E-005
 0.116801346494506E-004
 0.981710761849973E-005
 0.998173090528982E-005
 0.185007708782540E-004
 0.255483025181348E-004
 0.163317858736540E-004
 0.190457545657349E-004
 0.962370570674438E-005
 0.107530405931619E-004
 0.105665870914141E-004
 0.103968688285917E-004
 0.111791576208915E-004
 0.137251156415287E-004
 0.113325735624054E-004
 0.117701910833867E-004
 0.123102540035918E-005
 0.163258412993545E-005
 0.151754226890532E-005
 0.141363171668002E-005
 0.154356670106705E-005
 0.117481481790455E-005
 0.145564635527719E-005
 0.127873008677320E-005
 0.715918535032241E-005
 0.239525675184643E-005
 0.186896633912225E-005
 0.274262164539838E-005
 0.451510797985282E-004
 0.382338785650256E-004
 0.110080236066116E-004
 0.250831668599402E-004
 0.141003598624274E-004
 0.103059396607060E-004
 0.722387836718571E-005
 0.101892230809759E-004
 0.299539974048517E-005
 0.469456634857138E-005
 0.260998147671018E-005
 0.327337475269949E-005
 0.410558927769774E+000
 0.251360328997446E+000
 0.129219855982490E+000
 0.367271552417854E+000
 0.556646969495907E-005
 0.806858350749074E-005
 0.663899526728474E-005
 0.634973289793128E-005
 0.157593488568015E-005
 0.224392469357660E-005
 0.185158251014712E-005
 0.188840377445541E-005
 0.451347528421538E-005
 0.297091615652394E-005
 0.257664217810120E-005
 0.322813766312645E-005
 0.161435238981654E-005
 0.121444280991519E-005
 0.150588243861377E-005
 0.139396564520403E-005
 0.445398641864497E-005
 0.186043216537843E-005
 0.192871308890280E-005
 0.230760594747796E-005
 0.154159682940502E+000
 0.675520621924993E-001
 0.153674795344692E+000
 0.119901303906702E+000
 0.558408233833278E-002
 0.592579232519269E-001
 0.603063824066729E-002
 0.371263878930362E-001
 0.148725480182707E-003
 0.461052852161666E-003
 0.486750897888442E-003
 0.450663964141638E-003
 0.212675264860240E-004
 0.130873526646663E-004
 0.198733339907682E-004
 0.180364971738752E-004
 0.901560824135445E-004
 0.379542974697595E-004
 0.166607387132772E-003
 0.102748673574254E-003
 0.340124632532701E-004
 0.886094143502977E-004
 0.131197820997363E-003
 0.814983872553167E-004
 0.113541305524853E-004
 0.125948199770454E-004
 0.959955207099347E-005
 0.113834119620491E-004
 0.335414024197853E-004
 0.310409733076187E-004
 0.706426710289849E-004
 0.366577878207399E-004
 0.131429659898085E-004
 0.123899356324725E-004
 0.194356725948089E-004
 0.139641997649964E-004
 0.138567715559406E-004
 0.198088251524847E-004
 0.152000305143331E-004
 0.157686920285684E-004
 0.102381494122525E-004
 0.748600601519378E-005
 0.933376425712651E-005
 0.906649870734263E-005
 0.774237946549019E-005
 0.100614720936496E-004
 0.879573064971361E-005
 0.848380436863965E-005
 0.324681178540855E-003
 0.647334318747861E-003
 0.115716326896515E-003
 0.249142965635967E-003
 0.408148286807318E-004
 0.773345313098163E-004
 0.264223369759835E-003
 0.638607241231418E-004
 0.288251076648338E-003
 0.518932204210296E-004
 0.106143862570952E-003
 0.106176664867535E-003
 0.144470198026195E-004
 0.213421824095631E-004
 0.212798582696836E-004
 0.195796222909059E-004
 0.943557998722451E-005
 0.782698357763823E-005
 0.162554336573618E-004
 0.102280190144500E-004
 0.910489235712907E+000
 0.602646674693792E+000
 0.272163602570268E-001
 0.113495563372098E+001
 0.269025629205041E-001
 0.970290317556831E-002
 0.155291049275061E+000
 0.469932255810243E-001
 0.857561228661581E-005
 0.111341656114217E-004
 0.879074723672736E-005
 0.932381022874222E-005
 0.124773781803609E+000
 0.258528066560315E+000
 0.581280183939744E+000
 0.303705052218034E+000
 0.429279583107877E-001
 0.112654671535097E+000
 0.856274704083066E-001
 0.472754600755761E-001
 0.298142378465567E-001
 0.410991405313804E+000
 0.188557485854123E+000
 0.320198297183336E+000
 0.236361980453050E+000
 0.182635124258303E+000
 0.365712934616099E+000
 0.238783791498681E+000
 0.182266139814525E-004
 0.353547421269544E-004
 0.226219922766115E-004
 0.232958080963530E-004
 0.900826050890258E-006
 0.101975001221592E-005
 0.984167251265253E-006
 0.953155322760214E-006
 0.117456808450631E-005
 0.901845420383523E-006
 0.987991861069765E-006
 0.958542653076233E-006
 0.166295589719100E+000
 0.272828104923165E+000
 0.200640668473165E-001
 0.251510811410037E+000
 0.235208064341170E-005
 0.166139892462452E-005
 0.208192262109030E-005
 0.197196406105075E-005
 0.146534139334484E+000
 0.260311338330938E+000
 0.338037729218630E+000
 0.500298646069106E+000
 0.437764016651656E-001
 0.109549101058484E+000
 0.106797994173626E+000
 0.522160790077208E-001
 0.661709466879707E-002
 0.578788081515530E-002
 0.511047981712715E-001
 0.295480779668624E-001
 0.552237926889520E-002
 0.556094441523322E-001
 0.531653938918444E-002
 0.346709828650612E-001
 0.633691922485174E-001
 0.712883451251906E-001
 0.688101659891085E-001
 0.696589135005455E-001
 0.128693030345936E+000
 0.108460605641903E+000
 0.435416873171294E+000
 0.119027547904972E+000
 0.633782967275043E+000
 0.260387380318150E+000
 0.589657378563321E-001
 0.522257274888535E+000
 0.101775004728459E+000
 0.193208509867171E+000
 0.101311780139175E+001
 0.105785618954626E+000
 0.125791360534985E+000
 0.811203426391040E-001
 0.391591087697668E+000
 0.870629206427986E-001
 0.879905302349980E-001
 0.112878574673926E+000
 0.234700200454108E+000
 0.101242110632096E+000
 0.787873061579175E-001
 0.126877129352234E+000
 0.149572119588645E+000
 0.153632165994436E+000
 0.130368160973019E+000
 0.103202680414925E+001
 0.454355677118520E+000
 0.699200108827890E+000
 0.136278885570090E+001
 0.190226727434930E+000
 0.186758095143168E+001
 0.154132179613288E+001
 0.405261710682507E+000
 0.291349238946380E-001
 0.219473457094323E+000
 0.332836450044972E+000
 0.835212616956145E-002
 0.178200917047575E+000
 0.198742191046851E-001
 0.274237191001470E-001
 0.444306835574808E-001
 0.368283886156882E-001
 0.694800312627840E+000
 0.387948060670592E-001
 0.221900868645013E-003
 0.145148790216957E-003
 0.823465997945956E-003
 0.195274887051281E-003
 0.162905511154025E-005
 0.147355742423912E-005
 0.184368248006837E-005
 0.165454122822573E-005
 0.104151981775498E-005
 0.155205617500195E-005
 0.133303320182174E-005
 0.125423400939524E-005
 0.739817236929847E-001
 0.193365165896828E+000
 0.850403667436200E-001
 0.769377183303566E-001
 0.509279607773344E+000
 0.344174036897122E+000
 0.284412843987252E+000
 0.303673525613424E+000
 0.351238044792398E-001
 0.650814495462730E+000
 0.320174264936295E-001
 0.382736293914660E-001
 0.616633512288112E+000
 0.109977704403766E+001
 0.378048158411510E+000
 0.763179514749625E+000
 0.382287402198726E-002
 0.655302848508003E-002
 0.537355972280289E-001
 0.140300207995508E-001
 0.935801919809838E+000
 0.783191932977106E-001
 0.508051308656037E-001
 0.120626198853547E+000
 0.179294407658094E+001
 0.547614577554126E-001
 0.283823038837616E+001
 0.316867835330861E+001
 0.100086023474632E-001
 0.558023650887274E-003
 0.401042884967506E-003
 0.499253042655584E-003
 0.140076825378770E+001
 0.662768673044892E-001
 0.727527008018330E-001
 0.540070604525247E-001
 0.775326558558778E-003
 0.517318587664598E-003
 0.159804361702371E-003
 0.568147927671175E-003
 0.937873125649607E-004
 0.497877825052453E-003
 0.124246222527805E-003
 0.127300063261786E-003
 0.271945477949819E-001
 0.365870911774948E-001
 0.507991391480466E-002
 0.381192139118043E-001
 0.100409266216463E+000
 0.104939114380783E+001
 0.325711979403843E+000
 0.515287855844694E+000
 0.531028370157536E-001
 0.320826622136021E-001
 0.775704679162480E+000
 0.400320209393771E-001
 0.925410460091729E-001
 0.716302730392067E-001
 0.145409062250495E+000
 0.992281247857025E-001
 0.893622270134192E+000
 0.127422174600033E+000
 0.142688191674294E+000
 0.139739389930857E+000
 0.785995725144005E-001
 0.118472934295757E+001
 0.108722608755322E+000
 0.787450854716588E-001
 0.122610903533417E+000
 0.200149057735286E+001
 0.304399016197685E+001
 0.264394670149905E+001
 0.358316456429995E-001
 0.532106115229763E-002
 0.513309449372140E-002
 0.454696129105734E-002
 0.110732631848953E-001
 0.620542369781502E-002
 0.590578376291876E-001
 0.624987041610232E-002
 0.361717821915692E-001
 0.283608115298981E-001
 0.477840588849250E-002
 0.377642528949496E-001
 0.967632418592287E-001
 0.125189123605076E+000
 0.345274420452883E+001
 0.800115986620834E-001
 0.372391508882820E-005
 0.306526504538647E-005
 0.570473973967269E-005
 0.390231114831190E-005
 0.187886279434046E-004
 0.303715901933268E-004
 0.374015935437945E-004
 0.280184986316429E-004
 0.116280477833991E-004
 0.163362495742083E-004
 0.151507100343124E-004
 0.143461578566984E-004
 0.154509667038849E-004
 0.113540694576180E-004
 0.119959054120704E-004
 0.124520686442136E-004
 0.304033831857334E-003
 0.253452565787302E-003
 0.620153108328905E-004
 0.267568036319208E-003
 0.579259885430253E-004
 0.295193827784820E-003
 0.764336244082174E-004
 0.824621572651918E-004
 0.143150206384482E-004
 0.170180070217121E-004
 0.124673069116990E-004
 0.144568267504539E-004
 0.942515998401866E-004
 0.414406797885591E-003
 0.527999491469421E-003
 0.404601810184220E-003
 0.471308419865222E-005
 0.427199279486860E-005
 0.702643436601778E-005
 0.512975033667150E-005
 0.346877238741706E+000
 0.153320294487213E+000
 0.155221796488309E+000
 0.271842645389808E+000
 0.129171298326861E-004
 0.223917504525890E-004
 0.151487909573324E-004
 0.159089130944806E-004
 0.116118675724747E-005
 0.192061570319030E-005
 0.195244940603522E-005
 0.154658346879012E-005
 0.446379760407060E-003
 0.647257260385384E-004
 0.238881704291457E-003
 0.130450239042910E-003
 0.101786613417603E-004
 0.120395821668723E-004
 0.869626563104447E-005
 0.102860494874331E-004
 0.243901932435433E-004
 0.246013415796623E-004
 0.137165644022052E-004
 0.216851688125451E-004
 0.593792744901633E-004
 0.289828827166527E-003
 0.536516225096186E-004
 0.620420473801560E-004
 0.625701895838955E-002
 0.550011823117142E-001
 0.724817271841802E-002
 0.338405834737798E-001
 0.293701202251999E+000
 0.124568060346775E+001
 0.711183795409628E+000
 0.870547555585674E+000
 0.286397972329042E-001
 0.222122213745575E+000
 0.326290131622591E+000
 0.331849104943209E+000
 0.551313219236688E-005
 0.790605123620388E-005
 0.724014686937596E-005
 0.650150310455166E-005
 0.209542417356202E-004
 0.118095546259897E-004
 0.107167928816509E-004
 0.130325880594842E-004
 0.220983611827260E-004
 0.104938434870727E-004
 0.102657278728021E-004
 0.125965210279533E-004
 0.322178527824692E-003
 0.703670485858100E-004
 0.336436441016837E-003
 0.305077081896789E-003
 0.779797982729368E-001
 0.909675166477927E-001
 0.167647335626423E+000
 0.963637412263448E-001
 0.681948409888044E+000
 0.260962717765113E-001
 0.387108570242848E+000
 0.631485909315734E+000
 0.281031784898198E+000
 0.539000922354775E+000
 0.242423413714848E+000
 0.275105678665137E+000
 0.900239061691822E-006
 0.108751433793175E-005
 0.979402197340892E-006
 0.953993152447357E-006
 0.187086643779764E-005
 0.264006124757038E-005
 0.771198524179587E-005
 0.279059716571864E-005
 0.926325811387324E-001
 0.165381232682383E+000
 0.816710213915389E-001
 0.704575603064777E-001
 0.835665168124577E-001
 0.844038970413003E-001
 0.122291641620233E+000
 0.736530176041256E-001
 0.880245788099036E-001
 0.842743845585925E-001
 0.401268920215768E-001
 0.488112128949459E-001
 0.898458956692586E-002
 0.176004402644065E-001
 0.634375007593598E-001
 0.686071148161624E-001
 0.752616085674477E-001
 0.720782617385462E-001
 0.337606643171331E+000
 0.851072482017702E-001
 0.307641072879840E-001
 0.184344683528631E+000
 0.994949220677021E-002
 0.564239346939133E-001
 0.139265422943103E+000
 0.114362283147921E+000
 0.414446002129170E-001
 0.586066091496003E-001
 0.623611717518906E-001
 0.153259480447115E+000
 0.127573881952659E+000
 0.167012255797015E+000
 0.839947278337021E-001
 0.355016701081247E+000
 0.583867501253840E+000
 0.625774119168559E+000
 0.765957780609867E-001
 0.627726395358727E-001
 0.130577089396342E+000
 0.898361538710699E-001
 0.282103205334959E-001
 0.146042781664787E+000
 0.609911951726004E-001
 0.595212927046848E-001
 0.952229739823589E-005
 0.203704291699054E-004
 0.532677879299443E-005
 0.104862667632081E-004
 0.939509335967491E-002
 0.718965648929370E-002
 0.618005180688944E-003
 0.101532797685023E-001
 0.302998869113304E-002
 0.243595891180741E-002
 0.197276680118197E-001
 0.954111604353441E-002
 0.350767875227585E-001
 0.265025125886848E-001
 0.952513549374638E-002
 0.418111677735753E-001
 0.108042658159693E-004
 0.967739845802744E-005
 0.108645675033838E-004
 0.104809307492144E-004
 0.117529887321816E-004
 0.110410577369558E-004
 0.947816656264367E-005
 0.105135086358926E-004
 0.332432358496090E-001
 0.569789317691503E-001