# vtk DataFile Version 3.0
Unstructured Grid
ASCII
DATASET UNSTRUCTURED_GRID
FIELD FieldData 1
TIME 1 1 float
  0.673125E+02
POINTS          640 double
 0.000000000000000E+000 0.000000000000000E+000 0.000000000000000E+000
 0.100000000000000E+001 0.000000000000000E+000 0.000000000000000E+000
 0.100000000000000E+001 0.100000000000000E+001 0.000000000000000E+000
 0.000000000000000E+000 0.100000000000000E+001 0.000000000000000E+000
 0.125000000000000E+000 0.250000000000000E+000 0.000000000000000E+000
 0.375000000000000E+000 0.250000000000000E+000 0.000000000000000E+000
 0.375000000000000E+000 0.750000000000000E+000 0.000000000000000E+000
 0.125000000000000E+000 0.750000000000000E+000 0.000000000000000E+000
 0.625000000000000E+000 0.250000000000000E+000 0.000000000000000E+000
 0.875000000000000E+000 0.250000000000000E+000 0.000000000000000E+000
 0.875000000000000E+000 0.750000000000000E+000 0.000000000000000E+000
 0.625000000000000E+000 0.750000000000000E+000 0.000000000000000E+000
 0.100000000000000E+001 0.500000000000000E+000 0.000000000000000E+000
 0.000000000000000E+000 0.500000000000000E+000 0.000000000000000E+000
 0.500000000000000E+000 0.000000000000000E+000 0.000000000000000E+000
 0.125000000000000E+000 0.500000000000000E+000 0.000000000000000E+000
 0.000000000000000E+000 0.750000000000000E+000 0.000000000000000E+000
 0.000000000000000E+000 0.250000000000000E+000 0.000000000000000E+000
 0.000000000000000E+000 0.875000000000000E+000 0.000000000000000E+000
 0.000000000000000E+000 0.125000000000000E+000 0.000000000000000E+000
 0.625000000000000E-001 0.812500000000000E+000 0.000000000000000E+000
 0.125000000000000E+000 0.375000000000000E+000 0.000000000000000E+000
 0.125000000000000E+000 0.625000000000000E+000 0.000000000000000E+000
 0.500000000000000E+000 0.100000000000000E+001 0.000000000000000E+000
 0.250000000000000E+000 0.100000000000000E+001 0.000000000000000E+000
 0.125000000000000E+000 0.100000000000000E+001 0.000000000000000E+000
 0.729166666666667E-001 0.885416666666667E+000 0.000000000000000E+000
 0.000000000000000E+000 0.625000000000000E+000 0.000000000000000E+000
 0.625000000000000E-001 0.562500000000000E+000 0.000000000000000E+000
 0.375000000000000E+000 0.500000000000000E+000 0.000000000000000E+000
 0.375000000000000E+000 0.100000000000000E+001 0.000000000000000E+000
 0.250000000000000E+000 0.000000000000000E+000 0.000000000000000E+000
 0.625000000000000E-001 0.187500000000000E+000 0.000000000000000E+000
 0.143518518518519E+000 0.775462962962963E-001 0.000000000000000E+000
 0.156250000000000E+000 0.156250000000000E+000 0.000000000000000E+000
 0.729166666666667E-001 0.114583333333333E+000 0.000000000000000E+000
 0.125000000000000E+000 0.000000000000000E+000 0.000000000000000E+000
 0.250000000000000E+000 0.250000000000000E+000 0.000000000000000E+000
 0.375000000000000E+000 0.000000000000000E+000 0.000000000000000E+000
 0.187500000000000E+000 0.218750000000000E+000 0.000000000000000E+000
 0.312500000000000E+000 0.762453007518797E-001 0.000000000000000E+000
 0.270259392278489E+000 0.159169301283415E+000 0.000000000000000E+000
 0.365310977506407E+000 0.155367112827996E+000 0.000000000000000E+000
 0.312500000000000E+000 0.216265619131990E+000 0.000000000000000E+000
 0.500000000000000E+000 0.189389379011873E+000 0.000000000000000E+000
 0.426456487258648E+000 0.196919158251449E+000 0.000000000000000E+000
 0.451620395371675E+000 0.941243892751461E-001 0.000000000000000E+000
 0.381804756165356E+000 0.871724813114945E-001 0.000000000000000E+000
 0.437500000000000E+000 0.273708879364394E-001 0.000000000000000E+000
 0.000000000000000E+000 0.375000000000000E+000 0.000000000000000E+000
 0.625000000000000E-001 0.312500000000000E+000 0.000000000000000E+000
 0.250000000000000E+000 0.750000000000000E+000 0.000000000000000E+000
 0.158482142857143E+000 0.851934523809524E+000 0.000000000000000E+000
 0.210861885404568E+000 0.921875000000000E+000 0.000000000000000E+000
 0.136017278952732E+000 0.925863358051789E+000 0.000000000000000E+000
 0.625000000000000E-001 0.687500000000000E+000 0.000000000000000E+000
 0.250000000000000E+000 0.437500000000000E+000 0.000000000000000E+000
 0.247528011619582E+000 0.839830719156545E+000 0.000000000000000E+000
 0.312500000000000E+000 0.796669265575374E+000 0.000000000000000E+000
 0.419664368355990E+000 0.875000000000000E+000 0.000000000000000E+000
 0.313183356674252E+000 0.918387829019328E+000 0.000000000000000E+000
 0.312500000000000E+000 0.100000000000000E+001 0.000000000000000E+000
 0.380617553087688E+000 0.931527612480385E+000 0.000000000000000E+000
 0.187500000000000E+000 0.785936956899548E+000 0.000000000000000E+000
 0.350379273974835E+000 0.857317802397078E+000 0.000000000000000E+000
 0.228046514569416E+000 0.817347524546315E-001 0.000000000000000E+000
 0.187500000000000E+000 0.312500000000000E+000 0.000000000000000E+000
 0.625000000000000E-001 0.437500000000000E+000 0.000000000000000E+000
 0.197916666666667E+000 0.385416666666667E+000 0.000000000000000E+000
 0.375000000000000E+000 0.375000000000000E+000 0.000000000000000E+000
 0.750000000000000E+000 0.000000000000000E+000 0.000000000000000E+000
 0.625000000000000E-001 0.959280303030303E+000 0.000000000000000E+000
 0.234375000000000E+000 0.562500000000000E+000 0.000000000000000E+000
 0.187500000000000E+000 0.687500000000000E+000 0.000000000000000E+000
 0.193892045454545E+000 0.618607954545455E+000 0.000000000000000E+000
 0.375000000000000E+000 0.625000000000000E+000 0.000000000000000E+000
 0.283775504647110E+000 0.640801989544002E+000 0.000000000000000E+000
 0.281298714846257E+000 0.504888901855782E+000 0.000000000000000E+000
 0.331282779604339E+000 0.562500000000000E+000 0.000000000000000E+000
 0.338845441361880E+000 0.687500000000000E+000 0.000000000000000E+000
 0.500000000000000E+000 0.775815254846569E+000 0.000000000000000E+000
 0.625000000000000E-001 0.407196969696970E-001 0.000000000000000E+000
 0.328125000000000E+000 0.437500000000000E+000 0.000000000000000E+000
 0.284143518518519E+000 0.340856481481482E+000 0.000000000000000E+000
 0.312500000000000E+000 0.278356481481482E+000 0.000000000000000E+000
 0.625000000000000E+000 0.500000000000000E+000 0.000000000000000E+000
 0.410581328448014E+000 0.312500000000000E+000 0.000000000000000E+000
 0.543730092976870E+000 0.258404709955172E+000 0.000000000000000E+000
 0.625000000000000E+000 0.375000000000000E+000 0.000000000000000E+000
 0.500000000000000E+000 0.404784409423024E+000 0.000000000000000E+000
 0.590394028376448E+000 0.312500000000000E+000 0.000000000000000E+000
 0.467392923590959E+000 0.261422480241605E+000 0.000000000000000E+000
 0.508234229043035E+000 0.327522431406248E+000 0.000000000000000E+000
 0.625000000000000E+000 0.000000000000000E+000 0.000000000000000E+000
 0.537311919648379E+000 0.110523699730938E+000 0.000000000000000E+000
 0.750000000000000E+000 0.250000000000000E+000 0.000000000000000E+000
 0.593146640296986E+000 0.172723366619635E+000 0.000000000000000E+000
 0.623771215502605E+000 0.890722450407200E-001 0.000000000000000E+000
 0.687500000000000E+000 0.454068088573020E-001 0.000000000000000E+000
 0.793069391389776E+000 0.125000000000000E+000 0.000000000000000E+000
 0.695513657869308E+000 0.162768437982326E+000 0.000000000000000E+000
 0.687500000000000E+000 0.250000000000000E+000 0.000000000000000E+000
 0.875000000000000E+000 0.500000000000000E+000 0.000000000000000E+000
 0.727921748554044E+000 0.101601148842529E+000 0.000000000000000E+000
 0.759582972952604E+000 0.183381972603444E+000 0.000000000000000E+000
 0.875000000000000E+000 0.375000000000000E+000 0.000000000000000E+000
 0.718750000000000E+000 0.343750000000000E+000 0.000000000000000E+000
 0.697916666666667E+000 0.437500000000000E+000 0.000000000000000E+000
 0.750000000000000E+000 0.572048611111111E+000 0.000000000000000E+000
 0.787123226950355E+000 0.408133865248227E+000 0.000000000000000E+000
 0.804687500000000E+000 0.320312500000000E+000 0.000000000000000E+000
 0.700214460784314E+000 0.513965482026144E+000 0.000000000000000E+000
 0.783021635712153E+000 0.493366127722916E+000 0.000000000000000E+000
 0.625000000000000E+000 0.625000000000000E+000 0.000000000000000E+000
 0.848380638879200E+000 0.437500000000000E+000 0.000000000000000E+000
 0.562500000000000E+000 0.404604515401992E-001 0.000000000000000E+000
 0.875000000000000E+000 0.625000000000000E+000 0.000000000000000E+000
 0.750000000000000E+000 0.750000000000000E+000 0.000000000000000E+000
 0.697046765904942E+000 0.621060933265583E+000 0.000000000000000E+000
 0.200520833333333E+000 0.494791666666667E+000 0.000000000000000E+000
 0.429642360217793E+000 0.800955091165693E+000 0.000000000000000E+000
 0.453073336954457E+000 0.687500000000000E+000 0.000000000000000E+000
 0.548183885155829E+000 0.693587592964698E+000 0.000000000000000E+000
 0.750000000000000E+000 0.100000000000000E+001 0.000000000000000E+000
 0.573843760532799E+000 0.437500000000000E+000 0.000000000000000E+000
 0.500000000000000E+000 0.550126792242997E+000 0.000000000000000E+000
 0.511972906944656E+000 0.477455600833011E+000 0.000000000000000E+000
 0.437507615834863E+000 0.452402202857321E+000 0.000000000000000E+000
 0.546458141439317E+000 0.614345103225503E+000 0.000000000000000E+000
 0.571440414895569E+000 0.547357897962524E+000 0.000000000000000E+000
 0.450991397292447E+000 0.610087136082382E+000 0.000000000000000E+000
 0.875000000000000E+000 0.000000000000000E+000 0.000000000000000E+000
 0.100000000000000E+001 0.250000000000000E+000 0.000000000000000E+000
 0.100000000000000E+001 0.375000000000000E+000 0.000000000000000E+000
 0.687500000000000E+000 0.700324699898860E+000 0.000000000000000E+000
 0.812500000000000E+000 0.687500000000000E+000 0.000000000000000E+000
 0.804621866531165E+000 0.617121866531165E+000 0.000000000000000E+000
 0.825181931429427E+000 0.549770415540467E+000 0.000000000000000E+000
 0.100000000000000E+001 0.625000000000000E+000 0.000000000000000E+000
 0.100000000000000E+001 0.750000000000000E+000 0.000000000000000E+000
[...]
CELL_DATA         1212
SCALARS tdens double 1
LOOKUP_TABLE default
 0.100000000000000E-011
 0.100000000000000E-011
 0.100000000000000E-011
 0.100000000000000E-011
 0.100000000000000E-011
 0.195947940442244E-011
 0.100000000000000E-011
 0.100000000000000E-011
 0.933753393798751E-002
 0.299465945044226E-001
 0.698646637487664E-001
 0.117091512604762E+000
 0.100000000000000E-011
 0.100000000000000E-011
 0.100000000000000E-011
 0.100000000000000E-011
 0.100000000000000E-011
 0.100000000000000E-011
 0.100000000000000E-011
 0.100000000000000E-011
 0.100000000000000E-011
 0.100000000000000E-011
 0.100000000000000E-011
 0.100000000000000E-011
 0.100000000000000E-011
 0.100000000000000E-011
 0.100000000000000E-011
 0.100000000000000E-011
 0.166726662669264E-010
 0.582487877347569E-011
 0.179007216255201E-011
 0.546791397778378E-011
 0.251789230063163E-001
 0.459321813854315E+000
 0.457144848020329E-002
 0.106235813314227E+000
 0.100000000000000E-011
 0.100000000000000E-011
 0.100000000000000E-011
 0.100000000000000E-011
 0.218955340430493E-011
 0.100000000000000E-011
 0.172419197579233E-011
 0.168564554801215E-011
 0.100000000000000E-011
 0.100000000000000E-011
 0.100000000000000E-011
 0.100000000000000E-011
 0.100000000000000E-011
 0.100000000000000E-011
 0.100000000000000E-011
 0.100000000000000E-011
 0.489246117537165E-001
 0.125201606632215E-001
 0.195152134859989E-001
 0.810005444674684E-001
 0.100000000000000E-011
 0.100000000000000E-011
 0.100000000000000E-011
 0.100000000000000E-011
 0.384479719635519E-001
 0.130137096032952E+000
 0.172121058054071E+001
 0.440858319897323E+000
 0.100000000000000E-011
 0.100000000000000E-011
 0.100000000000000E-011
 0.100000000000000E-011
 0.100000000000000E-011
 0.100000000000000E-011
 0.100000000000000E-011
 0.100000000000000E-011
 0.100000000000000E-011
 0.100000000000000E-011
 0.100000000000000E-011
 0.100000000000000E-011
 0.438251527169195E-005
 0.948873439609786E-003
 0.194675557737803E-006
 0.132401650752854E-004
 0.160089986325580E-011
 0.100000000000000E-011
 0.120375001297119E-011
 0.100000000000000E-011
 0.100000000000000E-011
 0.100000000000000E-011
 0.100000000000000E-011
 0.100000000000000E-011
 0.219451021926197E-001
 0.813721151731618E-001
 0.556080194150370E-002
 0.353379894127231E-001
 0.100000000000000E-011
 0.100000000000000E-011
 0.100000000000000E-011
 0.100000000000000E-011
 0.100000000000000E-011
 0.100000000000000E-011
 0.100000000000000E-011
 0.100000000000000E-011
 0.100000000000000E-011
 0.100000000000000E-011
 0.100000000000000E-011
 0.100000000000000E-011
 0.100000000000000E-011
 0.100000000000000E-011
 0.100000000000000E-011
 0.100000000000000E-011
 0.306412441299646E-001
 0.124004612969008E-001
 0.264254433510683E+000
 0.101153802613780E-005
 0.100000000000000E-011
 0.100000000000000E-011
 0.100000000000000E-011
 0.100000000000000E-011
 0.126827761513988E-011
 0.930413507874341E-011
 0.246525997079676E-011
 0.197362406364819E-011
 0.100000000000000E-011
 0.100000000000000E-011
 0.100000000000000E-011
 0.100000000000000E-011
 0.100000000000000E-011
 0.100000000000000E-011
 0.100000000000000E-011
 0.100000000000000E-011
 0.666129643347562E-002
 0.636693943688961E-001
 0.519821291004294E-002
 0.290237930468342E-001
 0.100000000000000E-011
 0.100000000000000E-011
 0.100000000000000E-011
 0.100000000000000E-011
 0.116963692358328E-011
 0.328772277994082E-011
 0.109622989182432E-011
 0.131268510146759E-011
 0.100000000000000E-011
 0.100000000000000E-011
 0.100000000000000E-011
 0.100000000000000E-011
 0.100000000000000E-011
 0.100000000000000E-011
 0.100000000000000E-011
 0.100000000000000E-011
 0.100000000000000E-011
 0.100000000000000E-011
 0.100000000000000E-011
 0.100000000000000E-011
 0.100000000000000E-011
 0.100000000000000E-011
 0.100000000000000E-011
 0.100000000000000E-011
 0.100000000000000E-011
 0.100000000000000E-011
 0.100000000000000E-011
 0.100000000000000E-011
 0.100000000000000E-011
 0.100000000000000E-011
 0.100000000000000E-011
 0.100000000000000E-011
 0.100000000000000E-011
 0.100000000000000E-011
 0.100000000000000E-011
 0.100000000000000E-011
 0.990413984914881E+000
 0.452798699488858E+000
 0.928127242241227E-003
 0.667489642022074E+000
 0.731325411320183E-007
 0.189077956349148E-006
 0.353284247712367E+001
 0.107737326300518E-006
 0.293686143663554E+000
 0.734573733293073E-001
 0.654949491367562E+000
 0.143885068602182E-001
 0.100000000000000E-011
 0.100000000000000E-011
 0.100000000000000E-011
 0.100000000000000E-011
 0.100000000000000E-011
 0.100000000000000E-011
 0.100000000000000E-011
 0.100000000000000E-011
 0.100000000000000E-011
 0.100000000000000E-011
 0.100000000000000E-011
 0.100000000000000E-011
 0.100000000000000E-011
 0.100000000000000E-011
 0.100000000000000E-011
 0.100000000000000E-011
 0.100000000000000E-011
 0.100000000000000E-011
 0.100000000000000E-011
 0.100000000000000E-011
 0.100000000000000E-011
 0.100000000000000E-011
 0.100000000000000E-011
 0.100000000000000E-011
 0.100000000000000E-011
 0.100000000000000E-011
 0.100000000000000E-011
 0.100000000000000E-011
 0.100000000000000E-011
 0.100000000000000E-011
 0.100000000000000E-011
 0.100000000000000E-011
 0.100000000000000E-011
 0.100000000000000E-011
 0.100000000000000E-011
 0.100000000000000E-011
 0.100000000000000E-011
 0.100000000000000E-011
 0.100000000000000E-011
 0.100000000000000E-011
 0.100000000000000E-011
 0.100000000000000E-011
 0.100000000000000E-011
 0.100000000000000E-011
 0.100000000000000E-011
 0.100000000000000E-011
 0.100000000000000E-011
 0.100000000000000E-011
 0.100000000000000E-011
 0.100000000000000E-011
 0.100000000000000E-011
 0.100000000000000E-011
 0.534507496323100E-010
 0.784990760625090E-011
 0.730057349119330E-011
 0.819551612815572E-011
 0.775956877400882E-011
 0.199960676826589E-010
 0.304379906108241E-010
 0.263420473448519E-010
 0.480816596616778E-011
 0.144855260081862E-010
 0.215814995877355E-011
 0.503756272648747E-011
 0.100000000000000E-011
 0.100000000000000E-011
 0.100000000000000E-011
 0.100000000000000E-011
 0.208546111549508E-010
 0.144550636129498E-010
 0.371755924287108E-011
 0.837596196345067E-011
 0.229349567123254E-011
 0.122537159839641E-010
 0.512587049977160E-011
 0.507643993919208E-011
 0.100000000000000E-011
 0.100000000000000E-011
 0.100000000000000E-011
 0.100000000000000E-011
 0.100000000000000E-011
 0.100000000000000E-011
 0.100000000000000E-011
 0.100000000000000E-011
 0.100000000000000E-011
 0.100000000000000E-011
 0.100000000000000E-011
 0.100000000000000E-011
 0.159861505842714E-008
 0.493670669713093E-008
 0.917070572735646E-007
 0.295044071492502E-008
 0.511568664634644E-011
 0.120027156567106E-011
 0.391602179130571E-011
 0.429537803305354E-011
 0.142267936041109E-011
 0.334408510205809E-011
 0.110040078798250E-011
 0.147416554901012E-011
 0.220127268082557E-011
 0.229987373390121E-011
 0.100000000000000E-011
 0.195648893299032E-011
 0.100000000000000E-011
 0.100000000000000E-011
 0.100000000000000E-011
 0.100000000000000E-011
 0.100000000000000E-011
 0.237662903220340E-011
 0.129677167669605E-011
 0.122337893307508E-011
 0.766684352088637E-011
 0.463530166359921E-010
 0.528302643201509E-010
 0.463384386717087E-010
 0.100000000000000E-011
 0.100000000000000E-011
 0.100000000000000E-011
 0.100000000000000E-011
 0.100000000000000E-011
 0.100000000000000E-011
 0.100000000000000E-011
 0.100000000000000E-011
 0.100000000000000E-011
 0.100000000000000E-011
 0.100000000000000E-011
 0.100000000000000E-011
 0.100000000000000E-011
 0.100000000000000E-011
 0.100000000000000E-011
 0.100000000000000E-011
 0.100000000000000E-011
 0.100000000000000E-011
 0.100000000000000E-011
 0.100000000000000E-011
 0.100000000000000E-011
 0.100000000000000E-011
 0.100000000000000E-011
 0.100000000000000E-011
 0.100000000000000E-011
 0.100000000000000E-011
 0.100000000000000E-011
 0.100000000000000E-011
 0.100000000000000E-011
 0.100000000000000E-011
 0.100000000000000E-011
 0.100000000000000E-011
 0.100000000000000E-011
 0.100000000000000E-011
 0.100000000000000E-011
 0.100000000000000E-011
 0.137030607713387E-011
 0.102513732427288E-011
 0.100000000000000E-011
 0.100000000000000E-011
 0.100000000000000E-011
 0.100000000000000E-011
 0.100000000000000E-011
 0.100000000000000E-011
 0.100000000000000E-011
 0.100000000000000E-011
 0.100000000000000E-011
 0.100000000000000E-011
 0.130324498838878E+001
 0.557103071664969E+000
 0.121416878853796E+000
 0.934675509769249E+000
 0.100000000000000E-011
 0.100000000000000E-011
 0.100000000000000E-011
 0.100000000000000E-011
 0.100000000000000E-011
 0.100000000000000E-011
 0.100000000000000E-011
 0.100000000000000E-011
 0.100000000000000E-011
 0.100000000000000E-011
 0.100000000000000E-011
 0.100000000000000E-011
 0.100000000000000E-011
 0.100000000000000E-011
 0.100000000000000E-011
 0.100000000000000E-011
 0.100000000000000E-011
 0.100000000000000E-011
 0.100000000000000E-011
 0.100000000000000E-011
 0.683594220052182E-001
 0.700180115911353E-002
 0.307056696138279E+000
 0.136283899323035E-001
 0.604500359372853E-002
 0.110114115836063E+000
 0.552913060119335E-002
 0.384389364227519E-001
 0.514819393295185E-011
 0.237074521394716E-010
 0.168708869875871E-010
 0.205934470338888E-010
 0.100000000000000E-011
 0.100000000000000E-011
 0.100000000000000E-011
 0.100000000000000E-011
 0.307467004034039E-011
 0.115647989665948E-011
 0.573959820384635E-011
 0.358875424692787E-011
 0.135823438421994E-011
 0.482074469523833E-011
 0.807235112363267E-011
 0.432825129271781E-011
 0.100000000000000E-011
 0.100000000000000E-011
 0.100000000000000E-011
 0.100000000000000E-011
 0.109505463936966E-011
 0.100000000000000E-011
 0.243213601670323E-011
 0.115866733548904E-011
 0.100000000000000E-011
 0.100000000000000E-011
 0.100000000000000E-011
 0.100000000000000E-011
 0.100000000000000E-011
 0.100000000000000E-011
 0.100000000000000E-011
 0.100000000000000E-011
 0.100000000000000E-011
 0.100000000000000E-011
 0.100000000000000E-011
 0.100000000000000E-011
 0.100000000000000E-011
 0.100000000000000E-011
 0.100000000000000E-011
 0.100000000000000E-011
 0.135742716233324E-010
 0.326560676213619E-010
 0.329897000560765E-011
 0.810526922602177E-011
 0.123319190676114E-011
 0.226203914952918E-011
 0.110952632876529E-010
 0.189657389934153E-011
 0.134406407662479E-010
 0.184397652319880E-011
 0.377395661525069E-011
 0.389104775763286E-011
 0.100000000000000E-011
 0.100000000000000E-011
 0.100000000000000E-011
 0.100000000000000E-011
 0.100000000000000E-011
 0.100000000000000E-011
 0.100000000000000E-011
 0.100000000000000E-011
 0.135091729689167E+001
 0.863626478343000E+000
 0.924946240830055E-002
 0.161706368817083E+001
 0.278837640122884E-001
 0.593977873353368E-002
 0.189764224430102E+000
 0.509156819730647E-001
 0.100000000000000E-011
 0.100000000000000E-011
 0.100000000000000E-011
 0.100000000000000E-011
 0.192401469521439E-001
 0.125970088239839E-001
 0.349053242162113E-001
 0.955170098166006E-001
 0.426503973306905E-001
 0.787924912695048E-001
 0.330299246153516E-001
 0.232701976065518E-001
 0.254628327010654E-001
 0.656221950221105E+000
 0.337423870585982E+000
 0.450659975883646E+000
 0.344846042282065E-001
 0.366832255065891E+000
 0.506377668233312E+000
 0.705188732296827E+000
 0.100000000000000E-011
 0.122147029090757E-011
 0.100000000000000E-011
 0.100000000000000E-011
 0.100000000000000E-011
 0.100000000000000E-011
 0.100000000000000E-011
 0.100000000000000E-011
 0.100000000000000E-011
 0.100000000000000E-011
 0.100000000000000E-011
 0.100000000000000E-011
 0.104959382630189E+000
 0.463633212078708E-001
 0.197134725321375E-001
 0.641842998956337E-001
 0.100000000000000E-011
 0.100000000000000E-011
 0.100000000000000E-011
 0.100000000000000E-011
 0.184968194097073E-001
 0.347396981103162E+000
 0.105809460058068E-001
 0.562241800184196E-002
 0.485392889955998E-001
 0.283238663122456E-001
 0.217213304809538E+000
 0.108075187624254E-001
 0.939173038755501E-002
 0.609539804110086E-002
 0.118699016086689E+000
 0.341180095942742E-001
 0.517150714758496E-002
 0.930802691973345E-001
 0.526083077141247E-002
 0.356037534158352E-001
 0.659251658034495E-007
 0.139418299239146E-006
 0.154540440588645E-006
 0.164836925926227E-006
 0.340575865572594E-001
 0.163237499087706E-001
 0.873362880125483E+000
 0.106699044160079E+000
 0.797605032710522E+000
 0.285856665740425E+000
 0.200917501633652E-001
 0.665745107867097E+000
 0.773387741686198E-005
 0.532047218683423E-004
 0.134318323024348E+001
 0.223856775385294E-001
 0.233623632343782E-004
 0.688581820181448E-001
 0.290985338231825E+000
 0.582471545426079E-001
 0.182101689883506E-001
 0.846895333578885E-001
 0.752850543819617E+000
 0.315877950118998E-001
 0.168382070928488E-005
 0.592105164485042E-001
 0.742281329001323E-001
 0.181729469439922E-001
 0.104006368994779E-001
 0.149403361063246E+001
 0.928715242548396E+000
 0.159742474475361E+001
 0.191647495334527E+001
 0.117484306629471E-001
 0.232120054148310E+001
 0.234529501589366E+001
 0.392220114320703E+000
 0.365037622261095E-001
 0.230715261735371E+000
 0.286682934313632E+000
 0.507090478927810E-002
 0.156683281576962E+000
 0.607541024639378E-002
 0.355274512657875E-001
 0.668968028463827E-007
 0.185821596953729E-006
 0.232406964070700E+000
 0.653247177892160E-007
 0.874127646869328E-011
 0.795390421091583E-011
 0.806585269198628E-010
 0.895911619939711E-011
 0.100000000000000E-011
 0.100000000000000E-011
 0.100000000000000E-011
 0.100000000000000E-011
 0.100000000000000E-011
 0.100000000000000E-011
 0.100000000000000E-011
 0.100000000000000E-011
 0.148410061553734E-001
 0.157684815604775E-001
 0.900186659998811E-006
 0.120495913564228E-001
 0.703298430344294E+000
 0.193122915170639E+000
 0.127958537341679E+000
 0.150629726731670E+000
 0.266848169285899E-006
 0.890143678626847E+000
 0.342349447530215E-001
 0.106422463537827E+000
 0.637498700144761E+000
 0.154704855648834E+001
 0.342220498880842E+000
 0.688957484568306E+000
 0.227971133633482E-002
 0.827644164932704E-002
 0.299494091287558E-001
 0.975736908359391E-002
 0.137866938838551E+001
 0.637225479107296E-001
 0.155720307845725E-001
 0.249078324900353E+000
 0.362168391429136E+001
 0.160992731040068E-007
 0.332442662211941E+001
 0.452484458460871E+001
 0.708474671970139E-008
 0.562548556478349E-010
 0.377389147276168E-010
 0.473092753579121E-010
 0.229244819811183E+001
 0.178522107110556E-005
 0.536083856917225E-007
 0.829139785820161E-007
 0.667165584935553E-010
 0.368685449800107E-010
 0.792409294357708E-011
 0.416686733962953E-010
 0.406488682966444E-011
 0.369977104918483E-010
 0.610560568503223E-011
 0.619524774129053E-011
 0.104269901372819E-007
 0.314991721943408E-007
 0.100154428595015E-008
 0.226551422843683E-007
 0.256834411832742E-006
 0.749770175293274E-001
 0.372890678217442E-006
 0.771397226275511E-006
 0.109042298179067E-001
 0.834999588500590E-002
 0.100444081005273E+001
 0.131812230492660E+000
 0.122240442391309E-006
 0.953019359928057E-007
 0.588302169840910E-007
 0.895338099517268E-007
 0.162985943932266E+000
 0.392915696757232E-005
 0.124679035135044E-005
 0.146989185119212E-005
 0.305039688603279E-004
 0.194234330436275E+001
 0.453506990804964E-006
 0.684302161461523E-006
 0.325036270369667E-007
 0.410700103426280E+001
 0.312864836188887E+001
 0.438854253571293E+001
 0.165099140724281E-007
 0.113288433467545E-008
 0.110588364861521E-008
 0.903824915980611E-009
 0.480673645603521E-008
 0.158419197227666E-008
 0.777959279371542E-007
 0.256049504703411E-008
 0.322021695017217E-007
 0.105249340679565E-007
 0.984729644808491E-009
 0.212528279144381E-007
 0.398074803089021E-007
 0.457449567797586E-007
 0.441810414245140E+001
 0.197188273348144E-007
 0.100000000000000E-011
 0.100000000000000E-011
 0.100000000000000E-011
 0.100000000000000E-011
 0.100000000000000E-011
 0.100000000000000E-011
 0.126146884745045E-011
 0.100000000000000E-011
 0.100000000000000E-011
 0.100000000000000E-011
 0.100000000000000E-011
 0.100000000000000E-011
 0.100000000000000E-011
 0.100000000000000E-011
 0.100000000000000E-011
 0.100000000000000E-011
 0.125311037912337E-010
 0.997649400794205E-011
 0.198253722193393E-011
 0.107456159790462E-010
 0.191195275742387E-011
 0.136045781319292E-010
 0.289597999419200E-011
 0.295954927726870E-011
 0.100000000000000E-011
 0.100000000000000E-011
 0.100000000000000E-011
 0.100000000000000E-011
 0.396155489844914E-011
 0.259547720492512E-010
 0.389906065331050E-010
 0.250671596373977E-010
 0.100000000000000E-011
 0.100000000000000E-011
 0.100000000000000E-011
 0.100000000000000E-011
 0.127704996843472E+000
 0.474650137595555E-001
 0.234018792465587E+000
 0.100009894793658E+000
 0.100000000000000E-011
 0.100000000000000E-011
 0.100000000000000E-011
 0.100000000000000E-011
 0.100000000000000E-011
 0.100000000000000E-011
 0.100000000000000E-011
 0.100000000000000E-011
 0.255195896864882E-010
 0.211615106727566E-011
 0.935579309343146E-011
 0.397188436912370E-011
 0.100000000000000E-011
 0.100000000000000E-011
 0.100000000000000E-011
 0.100000000000000E-011
 0.100000000000000E-011
 0.100000000000000E-011
 0.100000000000000E-011
 0.100000000000000E-011
 0.186579601089717E-011
 0.106970656575457E-010
 0.168594412048203E-011
 0.185227783243737E-011
 0.569930994383943E-002
 0.577796097025721E-001
 0.719660980195217E-002
 0.330474467786750E-001
 0.353399271337771E+000
 0.258657380964937E+001
 0.755753464487126E+000
 0.115763416366420E+001
 0.226940335747267E-001
 0.320042658737793E+000
 0.469418404071989E+000
 0.404873949333228E+000
 0.100000000000000E-011
 0.100000000000000E-011
 0.100000000000000E-011
 0.100000000000000E-011
 0.100000000000000E-011
 0.100000000000000E-011
 0.100000000000000E-011
 0.100000000000000E-011
 0.100000000000000E-011
 0.100000000000000E-011
 0.100000000000000E-011
 0.100000000000000E-011
 0.156546838856904E-010
 0.226179202927464E-011
 0.152588567437773E-010
 0.119605671970311E-010
 0.951656464536092E-001
 0.116659876451897E-003
 0.860860869582505E-003
 0.179679427236531E-001
 0.715058117145194E+000
 0.457043818039591E-001
 0.397371464773095E+000
 0.731702967511403E+000
 0.195796565108623E+000
 0.465592943238686E+000
 0.416037562991959E+000
 0.678728546247652E+000
 0.100000000000000E-011
 0.100000000000000E-011
 0.100000000000000E-011
 0.100000000000000E-011
 0.100000000000000E-011
 0.100000000000000E-011
 0.100000000000000E-011
 0.100000000000000E-011
 0.172016646972058E-001
 0.185916653414855E-001
 0.241930316002976E-001
 0.209311776358844E-004
 0.198462599032852E-001
 0.177890270702005E-001
 0.149642625702148E-001
 0.455641853398015E-003
 0.164957399130704E+000
 0.360665449913274E-001
 0.580036018127295E-001
 0.996365322259000E-001
 0.102256660290036E-001
 0.218129760511417E-002
 0.350245773852224E-001
 0.645651558898951E-001
 0.880605522115601E-002
 0.637489319193842E-001
 0.626683358930757E+000
 0.149972838792583E+000
 0.320864966225769E-001
 0.213271626843999E+000
 0.654134848619164E-002
 0.622200781906454E-001
 0.160075309749505E+000
 0.553177924517191E-001
 0.422718731795543E-001
 0.746691890375758E-001
 0.100966608058447E-001
 0.959803053642439E-001
 0.278104756968799E+000
 0.155712718380213E-001
 0.686507372997229E-002
 0.563619935921044E+000
 0.646210714176305E+000
 0.112520443846913E+001
 0.117244658278623E+000
 0.675493250093557E-006
 0.217111522138206E+000
 0.125597702332585E+000
 0.415209725039168E-001
 0.217688349496890E+000
 0.195028072073442E-001
 0.921651753341757E-001
 0.100000000000000E-011
 0.100000000000000E-011
 0.100000000000000E-011
 0.100000000000000E-011
 0.711550018409510E-008
 0.358492454548093E-008
 0.630328268810645E-010
 0.634413232680203E-008
 0.262451913911191E-002
 0.187552353499798E-002
 0.282826788140184E-001
 0.977474713814030E-002
 0.157879188171175E-001
 0.400280335657009E-001
 0.169472498032938E-001
 0.297217826197250E-005
 0.100000000000000E-011
 0.100000000000000E-011
 0.100000000000000E-011
 0.100000000000000E-011
 0.100000000000000E-011
 0.100000000000000E-011
 0.100000000000000E-011
 0.100000000000000E-011
 0.179354243000915E-003
 0.112663688187631E+000