# vtk DataFile Version 3.0
Unstructured Grid
ASCII
DATASET UNSTRUCTURED_GRID
FIELD FieldData 1
TIME 1 1 float
  0.358125E+02
POINTS          640 double
 0.000000000000000E+000 0.000000000000000E+000 0.000000000000000E+000
 0.100000000000000E+001 0.000000000000000E+000 0.000000000000000E+000
 0.100000000000000E+001 0.100000000000000E+001 0.000000000000000E+000
 0.000000000000000E+000 0.100000000000000E+001 0.000000000000000E+000
 0.125000000000000E+000 0.250000000000000E+000 0.000000000000000E+000
 0.375000000000000E+000 0.250000000000000E+000 0.000000000000000E+000
 0.375000000000000E+000 0.750000000000000E+000 0.000000000000000E+000
 0.125000000000000E+000 0.750000000000000E+000 0.000000000000000E+000
 0.625000000000000E+000 0.250000000000000E+000 0.000000000000000E+000
 0.875000000000000E+000 0.250000000000000E+000 0.000000000000000E+000
 0.875000000000000E+000 0.750000000000000E+000 0.000000000000000E+000
 0.625000000000000E+000 0.750000000000000E+000 0.000000000000000E+000
 0.100000000000000E+001 0.500000000000000E+000 0.000000000000000E+000
 0.000000000000000E+000 0.500000000000000E+000 0.000000000000000E+000
 0.500000000000000E+000 0.000000000000000E+000 0.000000000000000E+000
 0.125000000000000E+000 0.500000000000000E+000 0.000000000000000E+000
 0.000000000000000E+000 0.750000000000000E+000 0.000000000000000E+000
 0.000000000000000E+000 0.250000000000000E+000 0.000000000000000E+000
 0.000000000000000E+000 0.875000000000000E+000 0.000000000000000E+000
 0.000000000000000E+000 0.125000000000000E+000 0.000000000000000E+000
 0.625000000000000E-001 0.812500000000000E+000 0.000000000000000E+000
 0.125000000000000E+000 0.375000000000000E+000 0.000000000000000E+000
 0.125000000000000E+000 0.625000000000000E+000 0.000000000000000E+000
 0.500000000000000E+000 0.100000000000000E+001 0.000000000000000E+000
 0.250000000000000E+000 0.100000000000000E+001 0.000000000000000E+000
 0.125000000000000E+000 0.100000000000000E+001 0.000000000000000E+000
 0.729166666666667E-001 0.885416666666667E+000 0.000000000000000E+000
 0.000000000000000E+000 0.625000000000000E+000 0.000000000000000E+000
 0.625000000000000E-001 0.562500000000000E+000 0.000000000000000E+000
 0.375000000000000E+000 0.500000000000000E+000 0.000000000000000E+000
 0.375000000000000E+000 0.100000000000000E+001 0.000000000000000E+000
 0.250000000000000E+000 0.000000000000000E+000 0.000000000000000E+000
 0.625000000000000E-001 0.187500000000000E+000 0.000000000000000E+000
 0.143518518518519E+000 0.775462962962963E-001 0.000000000000000E+000
 0.156250000000000E+000 0.156250000000000E+000 0.000000000000000E+000
 0.729166666666667E-001 0.114583333333333E+000 0.000000000000000E+000
 0.125000000000000E+000 0.000000000000000E+000 0.000000000000000E+000
 0.250000000000000E+000 0.250000000000000E+000 0.000000000000000E+000
 0.375000000000000E+000 0.000000000000000E+000 0.000000000000000E+000
 0.187500000000000E+000 0.218750000000000E+000 0.000000000000000E+000
 0.312500000000000E+000 0.762453007518797E-001 0.000000000000000E+000
 0.270259392278489E+000 0.159169301283415E+000 0.000000000000000E+000
 0.365310977506407E+000 0.155367112827996E+000 0.000000000000000E+000
 0.312500000000000E+000 0.216265619131990E+000 0.000000000000000E+000
 0.500000000000000E+000 0.189389379011873E+000 0.000000000000000E+000
 0.426456487258648E+000 0.196919158251449E+000 0.000000000000000E+000
 0.451620395371675E+000 0.941243892751461E-001 0.000000000000000E+000
 0.381804756165356E+000 0.871724813114945E-001 0.000000000000000E+000
 0.437500000000000E+000 0.273708879364394E-001 0.000000000000000E+000
 0.000000000000000E+000 0.375000000000000E+000 0.000000000000000E+000
 0.625000000000000E-001 0.312500000000000E+000 0.000000000000000E+000
 0.250000000000000E+000 0.750000000000000E+000 0.000000000000000E+000
 0.158482142857143E+000 0.851934523809524E+000 0.000000000000000E+000
 0.210861885404568E+000 0.921875000000000E+000 0.000000000000000E+000
 0.136017278952732E+000 0.925863358051789E+000 0.000000000000000E+000
 0.625000000000000E-001 0.687500000000000E+000 0.000000000000000E+000
 0.250000000000000E+000 0.437500000000000E+000 0.000000000000000E+000
 0.247528011619582E+000 0.839830719156545E+000 0.000000000000000E+000
 0.312500000000000E+000 0.796669265575374E+000 0.000000000000000E+000
 0.419664368355990E+000 0.875000000000000E+000 0.000000000000000E+000
 0.313183356674252E+000 0.918387829019328E+000 0.000000000000000E+000
 0.312500000000000E+000 0.100000000000000E+001 0.000000000000000E+000
 0.380617553087688E+000 0.931527612480385E+000 0.000000000000000E+000
 0.187500000000000E+000 0.785936956899548E+000 0.000000000000000E+000
 0.350379273974835E+000 0.857317802397078E+000 0.000000000000000E+000
 0.228046514569416E+000 0.817347524546315E-001 0.000000000000000E+000
 0.187500000000000E+000 0.312500000000000E+000 0.000000000000000E+000
 0.625000000000000E-001 0.437500000000000E+000 0.000000000000000E+000
 0.197916666666667E+000 0.385416666666667E+000 0.000000000000000E+000
 0.375000000000000E+000 0.375000000000000E+000 0.000000000000000E+000
 0.750000000000000E+000 0.000000000000000E+000 0.000000000000000E+000
 0.625000000000000E-001 0.959280303030303E+000 0.000000000000000E+000
 0.234375000000000E+000 0.562500000000000E+000 0.000000000000000E+000
 0.187500000000000E+000 0.687500000000000E+000 0.000000000000000E+000
 0.193892045454545E+000 0.618607954545455E+000 0.000000000000000E+000
 0.375000000000000E+000 0.625000000000000E+000 0.000000000000000E+000
 0.283775504647110E+000 0.640801989544002E+000 0.000000000000000E+000
 0.281298714846257E+000 0.504888901855782E+000 0.000000000000000E+000
 0.331282779604339E+000 0.562500000000000E+000 0.000000000000000E+000
 0.338845441361880E+000 0.687500000000000E+000 0.000000000000000E+000
 0.500000000000000E+000 0.775815254846569E+000 0.000000000000000E+000
 0.625000000000000E-001 0.407196969696970E-001 0.000000000000000E+000
 0.328125000000000E+000 0.437500000000000E+000 0.000000000000000E+000
 0.284143518518519E+000 0.340856481481482E+000 0.000000000000000E+000
 0.312500000000000E+000 0.278356481481482E+000 0.000000000000000E+000
 0.625000000000000E+000 0.500000000000000E+000 0.000000000000000E+000
 0.410581328448014E+000 0.312500000000000E+000 0.000000000000000E+000
 0.543730092976870E+000 0.258404709955172E+000 0.000000000000000E+000
 0.625000000000000E+000 0.375000000000000E+000 0.000000000000000E+000
 0.500000000000000E+000 0.404784409423024E+000 0.000000000000000E+000
 0.590394028376448E+000 0.312500000000000E+000 0.000000000000000E+000
 0.467392923590959E+000 0.261422480241605E+000 0.000000000000000E+000
 0.508234229043035E+000 0.327522431406248E+000 0.000000000000000E+000
 0.625000000000000E+000 0.000000000000000E+000 0.000000000000000E+000
 0.537311919648379E+000 0.110523699730938E+000 0.000000000000000E+000
 0.750000000000000E+000 0.250000000000000E+000 0.000000000000000E+000
 0.593146640296986E+000 0.172723366619635E+000 0.000000000000000E+000
 0.623771215502605E+000 0.890722450407200E-001 0.000000000000000E+000
 0.687500000000000E+000 0.454068088573020E-001 0.000000000000000E+000
 0.793069391389776E+000 0.125000000000000E+000 0.000000000000000E+000
 0.695513657869308E+000 0.162768437982326E+000 0.000000000000000E+000
 0.687500000000000E+000 0.250000000000000E+000 0.000000000000000E+000
 0.875000000000000E+000 0.500000000000000E+000 0.000000000000000E+000
 0.727921748554044E+000 0.101601148842529E+000 0.000000000000000E+000
 0.759582972952604E+000 0.183381972603444E+000 0.000000000000000E+000
 0.875000000000000E+000 0.375000000000000E+000 0.000000000000000E+000
 0.718750000000000E+000 0.343750000000000E+000 0.000000000000000E+000
 0.697916666666667E+000 0.437500000000000E+000 0.000000000000000E+000
 0.750000000000000E+000 0.572048611111111E+000 0.000000000000000E+000
 0.787123226950355E+000 0.408133865248227E+000 0.000000000000000E+000
 0.804687500000000E+000 0.320312500000000E+000 0.000000000000000E+000
 0.700214460784314E+000 0.513965482026144E+000 0.000000000000000E+000
 0.783021635712153E+000 0.493366127722916E+000 0.000000000000000E+000
 0.625000000000000E+000 0.625000000000000E+000 0.000000000000000E+000
 0.848380638879200E+000 0.437500000000000E+000 0.000000000000000E+000
 0.562500000000000E+000 0.404604515401992E-001 0.000000000000000E+000
 0.875000000000000E+000 0.625000000000000E+000 0.000000000000000E+000
 0.750000000000000E+000 0.750000000000000E+000 0.000000000000000E+000
 0.697046765904942E+000 0.621060933265583E+000 0.000000000000000E+000
 0.200520833333333E+000 0.494791666666667E+000 0.000000000000000E+000
 0.429642360217793E+000 0.800955091165693E+000 0.000000000000000E+000
 0.453073336954457E+000 0.687500000000000E+000 0.000000000000000E+000
 0.548183885155829E+000 0.693587592964698E+000 0.000000000000000E+000
 0.750000000000000E+000 0.100000000000000E+001 0.000000000000000E+000
 0.573843760532799E+000 0.437500000000000E+000 0.000000000000000E+000
 0.500000000000000E+000 0.550126792242997E+000 0.000000000000000E+000
 0.511972906944656E+000 0.477455600833011E+000 0.000000000000000E+000
 0.437507615834863E+000 0.452402202857321E+000 0.000000000000000E+000
 0.546458141439317E+000 0.614345103225503E+000 0.000000000000000E+000
 0.571440414895569E+000 0.547357897962524E+000 0.000000000000000E+000
 0.450991397292447E+000 0.610087136082382E+000 0.000000000000000E+000
 0.875000000000000E+000 0.000000000000000E+000 0.000000000000000E+000
 0.100000000000000E+001 0.250000000000000E+000 0.000000000000000E+000
 0.100000000000000E+001 0.375000000000000E+000 0.000000000000000E+000
 0.687500000000000E+000 0.700324699898860E+000 0.000000000000000E+000
 0.812500000000000E+000 0.687500000000000E+000 0.000000000000000E+000
 0.804621866531165E+000 0.617121866531165E+000 0.000000000000000E+000
 0.825181931429427E+000 0.549770415540467E+000 0.000000000000000E+000
 0.100000000000000E+001 0.625000000000000E+000 0.000000000000000E+000
 0.100000000000000E+001 0.750000000000000E+000 0.000000000000000E+000
[...]
CELL_DATA         1212
SCALARS tdens double 1
LOOKUP_TABLE default
 0.160708769826193E-005
 0.655096182710280E-006
 0.871927399508843E-006
 0.858229853959385E-006
 0.849209215421141E-005
 0.173127650043523E-004
 0.753220367655912E-005
 0.901085402836335E-005
 0.270415879915362E+000
 0.591916624309208E-001
 0.139439690477543E+000
 0.294944279322139E+000
 0.502111409011059E-006
 0.453244135450644E-006
 0.358856756903212E-006
 0.396059294271650E-006
 0.652463288079138E-006
 0.161633844941840E-005
 0.875038617789108E-006
 0.860429559299783E-006
 0.814794874650869E-006
 0.131971651996072E-005
 0.129401300218724E-005
 0.108221961849844E-005
 0.257512209714693E-005
 0.163574054708943E-005
 0.182507717647760E-005
 0.196877687566394E-005
 0.109449295942565E-003
 0.419664630587646E-004
 0.170573252751957E-004
 0.421030991955632E-004
 0.229205931347172E-001
 0.405120831743037E+000
 0.826012798173908E-002
 0.892283972266283E-001
 0.312199215618143E-006
 0.276750297880597E-006
 0.301332971481224E-006
 0.291839933667185E-006
 0.191087952487528E-004
 0.940370999753312E-005
 0.159870037282893E-004
 0.154329148168940E-004
 0.112759856234403E-005
 0.138072605188839E-005
 0.161106751780018E-005
 0.135018629687350E-005
 0.898720925132909E-005
 0.994625612372642E-005
 0.186742224650237E-005
 0.503842482784181E-005
 0.599627185097197E+000
 0.201111559653637E+000
 0.853564626463744E-001
 0.261212736821786E+000
 0.391178691467089E-005
 0.372059395675734E-005
 0.426663267770239E-005
 0.393014127941944E-005
 0.781890973904746E-001
 0.804226483899084E-001
 0.146701464648620E+001
 0.100870398008219E+000
 0.422206854120515E-006
 0.323260443637710E-006
 0.329566583151283E-006
 0.344600076227387E-006
 0.461036392007843E-006
 0.509508507620133E-006
 0.579001501474647E-006
 0.518240664503810E-006
 0.518523402520084E-006
 0.629182078121860E-006
 0.327050483336180E-006
 0.408046626633691E-006
 0.223009240546915E+000
 0.265816690080809E+000
 0.248270665255728E-001
 0.363610276315711E+000
 0.170630978589800E-004
 0.392401787018017E-005
 0.142261434826491E-004
 0.910041656826001E-005
 0.355107054876003E-006
 0.305248007502085E-006
 0.278483027777721E-006
 0.295838001909255E-006
 0.266251473713260E-001
 0.141064097320160E+000
 0.882243218516680E-002
 0.447114131289929E-001
 0.710151841999665E-006
 0.603644597839703E-006
 0.622798835019931E-006
 0.654223400412867E-006
 0.418650206905447E-006
 0.324931839977864E-006
 0.333002634509540E-006
 0.346594411808446E-006
 0.218179106313172E-005
 0.268437642414087E-005
 0.468152822076451E-005
 0.286794165151737E-005
 0.664733374856790E-006
 0.576684944245679E-006
 0.742469330884440E-006
 0.645029234332531E-006
 0.257022247817279E-001
 0.424358046712484E-001
 0.206623892222543E+000
 0.326847660264889E-001
 0.241990440723306E-005
 0.595854242339293E-006
 0.757966504811173E-006
 0.904113628438861E-006
 0.142844973741482E-004
 0.869230317610834E-004
 0.278463808828124E-004
 0.223763218039443E-004
 0.150407721807111E-005
 0.823064529787623E-006
 0.100251118386739E-005
 0.106099993806703E-005
 0.138704199776257E-005
 0.594429520110601E-006
 0.581127886411569E-006
 0.715727767851347E-006
 0.652734602064233E-002
 0.499262258833192E-001
 0.568248174477220E-002
 0.287470395551664E-001
 0.660529044983763E-005
 0.355511241975637E-005
 0.950888074986744E-005
 0.652089075159717E-005
 0.105140151742075E-004
 0.240623276499080E-004
 0.981439636614315E-005
 0.115046276030962E-004
 0.713581734758559E-006
 0.889272620213951E-006
 0.121116279130336E-005
 0.927145637809794E-006
 0.488415948974761E-006
 0.322520775606869E-006
 0.415966322864011E-006
 0.390679289265600E-006
 0.225950741187632E-005
 0.119168501842279E-005
 0.405275638829071E-005
 0.202133921927682E-005
 0.110418258435805E-005
 0.172965757157768E-005
 0.157199947522231E-005
 0.143318794303818E-005
 0.312809712607197E-006
 0.277921424173434E-006
 0.303233890609045E-006
 0.293677516198832E-006
 0.427652518699175E-006
 0.330451922461867E-006
 0.324861905154094E-006
 0.346276480964719E-006
 0.534783256468012E-006
 0.512193192159145E-006
 0.326857000880648E-006
 0.399350454906048E-006
 0.448346754463903E+000
 0.152658117440393E+000
 0.619251798670270E-001
 0.391634544404880E+000
 0.706231989435071E-001
 0.791033236488983E-001
 0.216944317012028E+001
 0.714637996108235E-001
 0.208287398084097E+000
 0.662807287825595E-001
 0.155950098897165E+000
 0.362731493843853E-001
 0.428246598222657E-005
 0.489512491563333E-005
 0.576932737455547E-005
 0.491630566668944E-005
 0.403040655904274E-005
 0.118082885248981E-005
 0.233155644433596E-005
 0.204241542050202E-005
 0.938335338908051E-006
 0.818454454782906E-006
 0.153413515302615E-005
 0.103489691367854E-005
 0.625453506264029E-006
 0.602283477338188E-006
 0.709132442204509E-006
 0.654100254758810E-006
 0.336087058270765E-005
 0.520135965363041E-005
 0.262868812130273E-005
 0.344455682273266E-005
 0.739087860755186E-006
 0.574536166269578E-006
 0.661021203948446E-006
 0.642194481485173E-006
 0.164533761215296E-005
 0.248348864148918E-005
 0.196696173583811E-005
 0.202055706380243E-005
 0.493706884625394E-006
 0.579014894087836E-006
 0.734747559361594E-006
 0.601711606087900E-006
 0.402444001098538E-006
 0.450460713140764E-006
 0.316160135124089E-006
 0.371184619514713E-006
 0.739611173714865E-006
 0.116664235544076E-005
 0.911860901703636E-006
 0.917339769304800E-006
 0.121269921990152E-005
 0.179715073191921E-005
 0.190396430298267E-005
 0.160156845816248E-005
 0.380606920321382E-005
 0.482183557053508E-005
 0.446288115747933E-005
 0.438281253806504E-005
 0.408049451388480E-005
 0.760338331638919E-005
 0.109388636467641E-004
 0.725326504446794E-005
 0.253954525903810E-003
 0.565304058312368E-004
 0.517872858875081E-004
 0.576164983146725E-004
 0.764024973074848E-004
 0.208956095381515E-003
 0.227387518734322E-003
 0.205578417374331E-003
 0.393154255571486E-004
 0.103466361406941E-003
 0.209343218198615E-004
 0.423226678026793E-004
 0.656167911407672E-006
 0.521010077640246E-006
 0.774289147758600E-006
 0.629381310342958E-006
 0.177128122679462E-003
 0.117278644533536E-003
 0.415399004794168E-004
 0.832421987767430E-004
 0.226880249237347E-004
 0.106077812548096E-003
 0.509098135438656E-004
 0.495357566024842E-004
 0.184685971733906E-005
 0.256433261484706E-005
 0.259474644046738E-005
 0.228306591050094E-005
 0.713707937323832E-005
 0.427140530667296E-005
 0.835461726025367E-005
 0.660916371774865E-005
 0.307455648057086E-005
 0.349491223802289E-005
 0.386848854776086E-005
 0.336340675803321E-005
 0.298607577828558E-002
 0.626517225973816E-002
 0.350597457141631E-001
 0.337527606237222E-002
 0.577250987098527E-004
 0.135721745352646E-004
 0.402177278189558E-004
 0.442665467982810E-004
 0.149288570726953E-004
 0.340953190017183E-004
 0.122237660783977E-004
 0.159200554125543E-004
 0.191606564794366E-004
 0.202262440783009E-004
 0.821174321601967E-005
 0.174295262976787E-004
 0.232430323832811E-005
 0.253915896970658E-005
 0.181669181057685E-005
 0.221166508129196E-005
 0.797781561554578E-005
 0.210347323141801E-004
 0.128634646820233E-004
 0.120261544391065E-004
 0.537145190672285E-004
 0.222451890815192E-003
 0.245598535206403E-003
 0.223502572021482E-003
 0.501850996329495E-005
 0.790357796854925E-005
 0.417164425719544E-005
 0.516427702958023E-005
 0.452216283944415E-006
 0.404254647751813E-006
 0.316759892234182E-006
 0.372427399310082E-006
 0.290668159386224E-005
 0.383216584444877E-005
 0.320132213348782E-005
 0.325674794397064E-005
 0.617820053764731E-005
 0.861610828687339E-005
 0.542365740686370E-005
 0.635854569073171E-005
 0.313295621021200E-005
 0.351408394567752E-005
 0.345177790850606E-005
 0.339385191421303E-005
 0.365926013004502E-005
 0.453130388730288E-005
 0.371225735036940E-005
 0.386006956012653E-005
 0.380258634397672E-006
 0.505789347588547E-006
 0.469128126099142E-006
 0.437004545803152E-006
 0.478910476428636E-006
 0.362752441546002E-006
 0.448841590119563E-006
 0.394672018896073E-006
 0.228655772608523E-005
 0.754749338731479E-006
 0.577010383796803E-006
 0.857917082533127E-006
 0.151759254087114E-004
 0.125785765950503E-004
 0.356430831491548E-005
 0.824503474834397E-005
 0.464033463106145E-005
 0.337324501343617E-005
 0.233717454127060E-005
 0.333089070771240E-005
 0.942822439439169E-006
 0.149517205102015E-005
 0.820658582475483E-006
 0.103333575253858E-005
 0.527357619022953E+000
 0.287115950490697E+000
 0.116532208212015E+000
 0.449545212852228E+000
 0.178647473455285E-005
 0.262247425518204E-005
 0.214169854163186E-005
 0.204558520940792E-005
 0.491472369474029E-006
 0.705257194489357E-006
 0.579186331086474E-006
 0.590886971876877E-006
 0.143872833155956E-005
 0.939230841340032E-006
 0.811037572191239E-006
 0.102090820703450E-005
 0.498592565748449E-006
 0.373816566322314E-006
 0.464327756761127E-006
 0.429392759070309E-006
 0.140692885708206E-005
 0.576355076083846E-006
 0.597870924623355E-006
 0.717258324498814E-006
 0.161388481269193E+000
 0.617776087181651E-001
 0.165980652470747E+000
 0.115568329187677E+000
 0.557144447188157E-002
 0.613281830713023E-001
 0.622190143550653E-002
 0.375913883327763E-001
 0.519781792439722E-004
 0.169243274672669E-003
 0.173779170879314E-003
 0.165413855364461E-003
 0.710918644375728E-005
 0.431476212926029E-005
 0.660745706021812E-005
 0.600383488963244E-005
 0.311719173667161E-004
 0.127601162782254E-004
 0.574488295706429E-004
 0.356107000003731E-004
 0.117082049688099E-004
 0.318564748404140E-004
 0.479568137445809E-004
 0.292339105685768E-004
 0.373439044114368E-005
 0.415976439877672E-005
 0.313563714057918E-005
 0.374461554681639E-005
 0.113848944299500E-004
 0.104438600066687E-004
 0.244479625102896E-004
 0.123993680686719E-004
 0.434729118728295E-005
 0.408635010020059E-005
 0.650658137964813E-005
 0.462127410479764E-005
 0.459492912995685E-005
 0.666635011594115E-005
 0.506201677160849E-005
 0.525529834868736E-005
 0.335313469292816E-005
 0.242401636924293E-005
 0.304667021278476E-005
 0.295799726562970E-005
 0.250975871639511E-005
 0.329421825218079E-005
 0.286368191800830E-005
 0.275868809885060E-005
 0.116996290110349E-003
 0.239175325783904E-003
 0.388731830365778E-004
 0.850244596603997E-004
 0.137175899779551E-004
 0.259936057603542E-004
 0.951914667556243E-004
 0.214722305593440E-004
 0.106579018984516E-003
 0.179168164413048E-004
 0.371530952653300E-004
 0.374018032161753E-004
 0.479226058684154E-005
 0.716614931782461E-005
 0.716874217290951E-005
 0.657562981825167E-005
 0.305094109342565E-005
 0.252853760299056E-005
 0.533275993684803E-005
 0.331550978830139E-005
 0.100821463690071E+001
 0.657421907731345E+000
 0.210411905123559E-001
 0.123788832428181E+001
 0.274040975996782E-001
 0.784039979799825E-002
 0.161688666232966E+000
 0.494632050404591E-001
 0.278204302626504E-005
 0.364479553665604E-005
 0.285257790590446E-005
 0.303190407952421E-005
 0.761763120539525E-001
 0.216994820889561E+000
 0.527097488391376E+000
 0.279790882732078E+000
 0.429608130942535E-001
 0.111398049923656E+000
 0.829043602122669E-001
 0.464669666394303E-001
 0.309245541189736E-001
 0.449610888431354E+000
 0.203521829702787E+000
 0.341267426152548E+000
 0.240835244106893E+000
 0.194690445147144E+000
 0.360554418542736E+000
 0.258928658177380E+000
 0.607271092058417E-005
 0.120697610281479E-004
 0.760808067142644E-005
 0.783426736026840E-005
 0.277557148429870E-006
 0.314811637727061E-006
 0.303936107233768E-006
 0.294072359992797E-006
 0.366385063842324E-006
 0.278011157340143E-006
 0.305842638527776E-006
 0.296443812523273E-006
 0.164281565320086E+000
 0.259717724251791E+000
 0.178398956470026E-001
 0.240269079288089E+000
 0.739401035764975E-006
 0.518473086462424E-006
 0.652290770360673E-006
 0.617789291499555E-006
 0.118722668278814E+000
 0.231686550634331E+000
 0.263179822599559E+000
 0.441158355797596E+000
 0.435905446354795E-001
 0.102897802516433E+000
 0.111211441711086E+000
 0.497264034233645E-001
 0.659686758110071E-002
 0.580062691734628E-002
 0.510610879630881E-001
 0.296003975704956E-001
 0.567972218161822E-002
 0.597746529596485E-001
 0.532736598434367E-002
 0.353031005749178E-001
 0.331394725661262E-001
 0.391509639405854E-001
 0.380436324571881E-001
 0.387599499812020E-001
 0.972842429327596E-001
 0.706438981377844E-001
 0.503063853547316E+000
 0.956767793378504E-001
 0.686281930195625E+000
 0.284115851287857E+000
 0.409155768073973E-001
 0.599939660508994E+000
 0.727670690066193E-001
 0.151486671498739E+000
 0.112469112048771E+001
 0.754861444292077E-001
 0.100572184746940E+000
 0.767129040301236E-001
 0.382228159055702E+000
 0.638111441018561E-001
 0.817425639673038E-001
 0.100589698928545E+000
 0.274620347906699E+000
 0.937009212073350E-001
 0.495740859738963E-001
 0.111045867349360E+000
 0.121078380593313E+000
 0.126585091686071E+000
 0.796789502302666E-001
 0.111190501851103E+001
 0.522365911612447E+000
 0.856411941152742E+000
 0.149908035340800E+001
 0.147461084209718E+000
 0.203908848330685E+001
 0.170572892301234E+001
 0.359121433105640E+000
 0.187089287210858E-001
 0.207070861562590E+000
 0.333158585830708E+000
 0.678381355052541E-002
 0.170155004040453E+000
 0.129270911436430E-001
 0.311604885701052E-001
 0.239644894864522E-001
 0.240482838915472E-001
 0.655671049340506E+000
 0.203496462648660E-001
 0.806976541902761E-004
 0.536248936001566E-004
 0.345199099837423E-003
 0.720649328668019E-004
 0.507294390499775E-006
 0.458548539474964E-006
 0.575860630241099E-006
 0.515616863705691E-006
 0.321823085895669E-006
 0.483346851536313E-006
 0.413992447829252E-006
 0.389029191471108E-006
 0.431448862279204E-001
 0.156457894585481E+000
 0.490460538668796E-001
 0.452565976592564E-001
 0.518056228616584E+000
 0.342224521588060E+000
 0.294470205488773E+000
 0.313182240985309E+000
 0.261052721201556E-001
 0.708023877790279E+000
 0.291725950135050E-001
 0.452099955303953E-001
 0.611919586211619E+000
 0.114140100314395E+001
 0.383848858637815E+000
 0.771905325434465E+000
 0.273924334127817E-002
 0.459262823391189E-002
 0.451057541849886E-001
 0.133572310189020E-001
 0.103100778637687E+001
 0.757362774692300E-001
 0.317835597058781E-001
 0.148400834130912E+000
 0.209773370764512E+001
 0.261156670517515E-001
 0.318398460025690E+001
 0.370186878856982E+001
 0.485908210009777E-002
 0.218406212783212E-003
 0.156523778230396E-003
 0.192837014044131E-003
 0.163080955014003E+001
 0.455540154902347E-001
 0.392624925805776E-001
 0.279789279930309E-001
 0.305922948901292E-003
 0.198839271720924E-003
 0.578772462927569E-004
 0.220434158669420E-003
 0.333190921058186E-004
 0.192757925813125E-003
 0.447891919680508E-004
 0.458303402103567E-004
 0.131917976863150E-001
 0.199300093692010E-001
 0.225151022273293E-002
 0.198771881003735E-001
 0.557081190006818E-001
 0.955243456352662E+000
 0.193960418782535E+000
 0.338810015072829E+000
 0.427664257116727E-001
 0.248266918888854E-001
 0.812540976225224E+000
 0.416558187945504E-001
 0.492723053632400E-001
 0.383293322029708E-001
 0.748349639585889E-001
 0.530613562058995E-001
 0.885270660489519E+000
 0.808317480669834E-001
 0.862105261312816E-001
 0.814077156995837E-001
 0.656723359888552E-001
 0.134295002567698E+001
 0.711338663488859E-001
 0.465356857346316E-001
 0.603840718421070E-001
 0.244820574604361E+001
 0.337419471760360E+001
 0.314341359590332E+001
 0.180045392782545E-001
 0.238196057937054E-002
 0.231823840067599E-002
 0.200528111003344E-002
 0.572478754458434E-002
 0.289594798811047E-002
 0.347136285376066E-001
 0.308269903443344E-002
 0.200289575338648E-001
 0.138939212372084E-001
 0.215558526705190E-002
 0.199622095700327E-001
 0.494154227958476E-001
 0.637093522967380E-001
 0.389493415608027E+001
 0.389025349846572E-001
 0.118319290720207E-005
 0.969672459100447E-006
 0.183081752247209E-005
 0.124020018091940E-005
 0.625583504887121E-005
 0.102157456731511E-004
 0.127504800308002E-004
 0.944511092649962E-005
 0.381121741658890E-005
 0.542482270515999E-005
 0.501877325953269E-005
 0.474356686167184E-005
 0.512360990801604E-005
 0.371847986588473E-005
 0.393740040155815E-005
 0.409194922612373E-005
 0.109069990545420E-003
 0.911701088777493E-004
 0.211281904814587E-004
 0.960049818987987E-004
 0.198516513234721E-004
 0.108772344831340E-003
 0.267579271506898E-004
 0.287765573143382E-004
 0.472971837696317E-005
 0.566066526296800E-005
 0.409794998345133E-005
 0.477941808676268E-005
 0.333524843242715E-004
 0.157489185043594E-003
 0.205506358903159E-003
 0.154103693425875E-003
 0.150366318288025E-005
 0.136118191696695E-005
 0.226827884598044E-005
 0.164007420226662E-005
 0.346280327892088E+000
 0.144911159748281E+000
 0.160412316790315E+000
 0.269825068250681E+000
 0.423822173038031E-005
 0.745432851673745E-005
 0.500710570323167E-005
 0.524974545993073E-005
 0.359678850032538E-006
 0.600519233558071E-006
 0.611092239132539E-006
 0.482140822170176E-006
 0.165698813191755E-003
 0.219388600127401E-004
 0.842975950347283E-004
 0.437033567379095E-004
 0.331826443519145E-005
 0.394822087929172E-005
 0.282232071376259E-005
 0.335693322453916E-005
 0.807044407799307E-005
 0.816284601278640E-005
 0.449472987854638E-005
 0.718585057746972E-005
 0.200551853631464E-004
 0.101348949778444E-003
 0.181613902405764E-004
 0.208014810249343E-004
 0.623220787598102E-002
 0.538733638464225E-001
 0.719111051776991E-002
 0.336718733116510E-001
 0.308478943213193E+000
 0.140297855513398E+001
 0.752801431973464E+000
 0.924656311477701E+000
 0.276655402987418E-001
 0.231780031133083E+000
 0.332021651264893E+000
 0.338617172820577E+000
 0.176515400867314E-005
 0.255745255130321E-005
 0.233660188644805E-005
 0.209336620898658E-005
 0.692700768733654E-005
 0.385984085145526E-005
 0.348887124483468E-005
 0.425906754690292E-005
 0.730105741352310E-005
 0.341124035847044E-005
 0.332567294609565E-005
 0.409744269732175E-005
 0.111836570689216E-003
 0.238145651320810E-004
 0.120484994260096E-003
 0.107352956137234E-003
 0.444072109421254E-001
 0.530223547962834E-001
 0.139688896407400E+000
 0.563461894025975E-001
 0.710149728142738E+000
 0.272381422186699E-001
 0.387930742784086E+000
 0.649763378772402E+000
 0.283907132147430E+000
 0.559652877019213E+000
 0.260768797387720E+000
 0.302029465346961E+000
 0.277562653807733E-006
 0.339640506237016E-006
 0.302695109246099E-006
 0.295022589376009E-006
 0.578253086469372E-006
 0.835249215088709E-006
 0.247661412246879E-005
 0.875331456001975E-006
 0.548292044033664E-001
 0.127989832715276E+000
 0.498366126207059E-001
 0.453953889730323E-001
 0.537075783759017E-001
 0.618351833433632E-001
 0.104140505223486E+000
 0.518696754494982E-001
 0.104020906055446E+000
 0.754179727953834E-001
 0.421433147647008E-001
 0.532472182345171E-001
 0.881219066584997E-002
 0.174333331725822E-001
 0.643907485405814E-001
 0.692711048549185E-001
 0.536171403117632E-001
 0.552444590959390E-001
 0.422178580206390E+000
 0.734107627338008E-001
 0.312712033377208E-001
 0.188727848242368E+000
 0.816484348570740E-002
 0.590355137409745E-001
 0.141904293539588E+000
 0.112343784617904E+000
 0.414984629434680E-001
 0.587052442277265E-001
 0.463336354705678E-001
 0.144978605874698E+000
 0.142996587982667E+000
 0.148800808211308E+000
 0.558463256313654E-001
 0.413059661188179E+000
 0.623499555084295E+000
 0.767749521711123E+000
 0.813970006730001E-001
 0.430238644040286E-001
 0.142377602044942E+000
 0.989277095160869E-001
 0.311089061828625E-001
 0.166376204197679E+000
 0.563584197440622E-001
 0.651427896015001E-001
 0.306646779492401E-005
 0.661260155986432E-005
 0.169393993076499E-005
 0.337773201784384E-005
 0.449660705951969E-002
 0.336696780246054E-002
 0.241055635384328E-003
 0.487962303651610E-002
 0.308001479063790E-002
 0.243140272718216E-002
 0.202857818330951E-001
 0.963938777314237E-002
 0.241766578347864E-001
 0.298465526062554E-001
 0.893703283837149E-002
 0.330787561064784E-001
 0.353089838895782E-005
 0.315001095198919E-005
 0.355213542619120E-005
 0.342127456693547E-005
 0.385361013767310E-005
 0.361240767408143E-005
 0.308336531768979E-005
 0.343410241683964E-005
 0.248943771753590E-001
 0.519948562258540E-001