# vtk DataFile Version 3.0
Unstructured Grid
ASCII
DATASET UNSTRUCTURED_GRID
FIELD FieldData 1
TIME 1 1 float
  0.605625E+02
POINTS          640 double
 0.000000000000000E+000 0.000000000000000E+000 0.000000000000000E+000
 0.100000000000000E+001 0.000000000000000E+000 0.000000000000000E+000
 0.100000000000000E+001 0.100000000000000E+001 0.000000000000000E+000
 0.000000000000000E+000 0.100000000000000E+001 0.000000000000000E+000
 0.125000000000000E+000 0.250000000000000E+000 0.000000000000000E+000
 0.375000000000000E+000 0.250000000000000E+000 0.000000000000000E+000
 0.375000000000000E+000 0.750000000000000E+000 0.000000000000000E+000
 0.125000000000000E+000 0.750000000000000E+000 0.000000000000000E+000
 0.625000000000000E+000 0.250000000000000E+000 0.000000000000000E+000
 0.875000000000000E+000 0.250000000000000E+000 0.000000000000000E+000
 0.875000000000000E+000 0.750000000000000E+000 0.000000000000000E+000
 0.625000000000000E+000 0.750000000000000E+000 0.000000000000000E+000
 0.100000000000000E+001 0.500000000000000E+000 0.000000000000000E+000
 0.000000000000000E+000 0.500000000000000E+000 0.000000000000000E+000
 0.500000000000000E+000 0.000000000000000E+000 0.000000000000000E+000
 0.125000000000000E+000 0.500000000000000E+000 0.000000000000000E+000
 0.000000000000000E+000 0.750000000000000E+000 0.000000000000000E+000
 0.000000000000000E+000 0.250000000000000E+000 0.000000000000000E+000
 0.000000000000000E+000 0.875000000000000E+000 0.000000000000000E+000
 0.000000000000000E+000 0.125000000000000E+000 0.000000000000000E+000
 0.625000000000000E-001 0.812500000000000E+000 0.000000000000000E+000
 0.125000000000000E+000 0.375000000000000E+000 0.000000000000000E+000
 0.125000000000000E+000 0.625000000000000E+000 0.000000000000000E+000
 0.500000000000000E+000 0.100000000000000E+001 0.000000000000000E+000
 0.250000000000000E+000 0.100000000000000E+001 0.000000000000000E+000
 0.125000000000000E+000 0.100000000000000E+001 0.000000000000000E+000
 0.729166666666667E-001 0.885416666666667E+000 0.000000000000000E+000
 0.000000000000000E+000 0.625000000000000E+000 0.000000000000000E+000
 0.625000000000000E-001 0.562500000000000E+000 0.000000000000000E+000
 0.375000000000000E+000 0.500000000000000E+000 0.000000000000000E+000
 0.375000000000000E+000 0.100000000000000E+001 0.000000000000000E+000
 0.250000000000000E+000 0.000000000000000E+000 0.000000000000000E+000
 0.625000000000000E-001 0.187500000000000E+000 0.000000000000000E+000
 0.143518518518519E+000 0.775462962962963E-001 0.000000000000000E+000
 0.156250000000000E+000 0.156250000000000E+000 0.000000000000000E+000
 0.729166666666667E-001 0.114583333333333E+000 0.000000000000000E+000
 0.125000000000000E+000 0.000000000000000E+000 0.000000000000000E+000
 0.250000000000000E+000 0.250000000000000E+000 0.000000000000000E+000
 0.375000000000000E+000 0.000000000000000E+000 0.000000000000000E+000
 0.187500000000000E+000 0.218750000000000E+000 0.000000000000000E+000
 0.312500000000000E+000 0.762453007518797E-001 0.000000000000000E+000
 0.270259392278489E+000 0.159169301283415E+000 0.000000000000000E+000
 0.365310977506407E+000 0.155367112827996E+000 0.000000000000000E+000
 0.312500000000000E+000 0.216265619131990E+000 0.000000000000000E+000
 0.500000000000000E+000 0.189389379011873E+000 0.000000000000000E+000
 0.426456487258648E+000 0.196919158251449E+000 0.000000000000000E+000
 0.451620395371675E+000 0.941243892751461E-001 0.000000000000000E+000
 0.381804756165356E+000 0.871724813114945E-001 0.000000000000000E+000
 0.437500000000000E+000 0.273708879364394E-001 0.000000000000000E+000
 0.000000000000000E+000 0.375000000000000E+000 0.000000000000000E+000
 0.625000000000000E-001 0.312500000000000E+000 0.000000000000000E+000
 0.250000000000000E+000 0.750000000000000E+000 0.000000000000000E+000
 0.158482142857143E+000 0.851934523809524E+000 0.000000000000000E+000
 0.210861885404568E+000 0.921875000000000E+000 0.000000000000000E+000
 0.136017278952732E+000 0.925863358051789E+000 0.000000000000000E+000
 0.625000000000000E-001 0.687500000000000E+000 0.000000000000000E+000
 0.250000000000000E+000 0.437500000000000E+000 0.000000000000000E+000
 0.247528011619582E+000 0.839830719156545E+000 0.000000000000000E+000
 0.312500000000000E+000 0.796669265575374E+000 0.000000000000000E+000
 0.419664368355990E+000 0.875000000000000E+000 0.000000000000000E+000
 0.313183356674252E+000 0.918387829019328E+000 0.000000000000000E+000
 0.312500000000000E+000 0.100000000000000E+001 0.000000000000000E+000
 0.380617553087688E+000 0.931527612480385E+000 0.000000000000000E+000
 0.187500000000000E+000 0.785936956899548E+000 0.000000000000000E+000
 0.350379273974835E+000 0.857317802397078E+000 0.000000000000000E+000
 0.228046514569416E+000 0.817347524546315E-001 0.000000000000000E+000
 0.187500000000000E+000 0.312500000000000E+000 0.000000000000000E+000
 0.625000000000000E-001 0.437500000000000E+000 0.000000000000000E+000
 0.197916666666667E+000 0.385416666666667E+000 0.000000000000000E+000
 0.375000000000000E+000 0.375000000000000E+000 0.000000000000000E+000
 0.750000000000000E+000 0.000000000000000E+000 0.000000000000000E+000
 0.625000000000000E-001 0.959280303030303E+000 0.000000000000000E+000
 0.234375000000000E+000 0.562500000000000E+000 0.000000000000000E+000
 0.187500000000000E+000 0.687500000000000E+000 0.000000000000000E+000
 0.193892045454545E+000 0.618607954545455E+000 0.000000000000000E+000
 0.375000000000000E+000 0.625000000000000E+000 0.000000000000000E+000
 0.283775504647110E+000 0.640801989544002E+000 0.000000000000000E+000
 0.281298714846257E+000 0.504888901855782E+000 0.000000000000000E+000
 0.331282779604339E+000 0.562500000000000E+000 0.000000000000000E+000
 0.338845441361880E+000 0.687500000000000E+000 0.000000000000000E+000
 0.500000000000000E+000 0.775815254846569E+000 0.000000000000000E+000
 0.625000000000000E-001 0.407196969696970E-001 0.000000000000000E+000
 0.328125000000000E+000 0.437500000000000E+000 0.000000000000000E+000
 0.284143518518519E+000 0.340856481481482E+000 0.000000000000000E+000
 0.312500000000000E+000 0.278356481481482E+000 0.000000000000000E+000
 0.625000000000000E+000 0.500000000000000E+000 0.000000000000000E+000
 0.410581328448014E+000 0.312500000000000E+000 0.000000000000000E+000
 0.543730092976870E+000 0.258404709955172E+000 0.000000000000000E+000
 0.625000000000000E+000 0.375000000000000E+000 0.000000000000000E+000
 0.500000000000000E+000 0.404784409423024E+000 0.000000000000000E+000
 0.590394028376448E+000 0.312500000000000E+000 0.000000000000000E+000
 0.467392923590959E+000 0.261422480241605E+000 0.000000000000000E+000
 0.508234229043035E+000 0.327522431406248E+000 0.000000000000000E+000
 0.625000000000000E+000 0.000000000000000E+000 0.000000000000000E+000
 0.537311919648379E+000 0.110523699730938E+000 0.000000000000000E+000
 0.750000000000000E+000 0.250000000000000E+000 0.000000000000000E+000
 0.593146640296986E+000 0.172723366619635E+000 0.000000000000000E+000
 0.623771215502605E+000 0.890722450407200E-001 0.000000000000000E+000
 0.687500000000000E+000 0.454068088573020E-001 0.000000000000000E+000
 0.793069391389776E+000 0.125000000000000E+000 0.000000000000000E+000
 0.695513657869308E+000 0.162768437982326E+000 0.000000000000000E+000
 0.687500000000000E+000 0.250000000000000E+000 0.000000000000000E+000
 0.875000000000000E+000 0.500000000000000E+000 0.000000000000000E+000
 0.727921748554044E+000 0.101601148842529E+000 0.000000000000000E+000
 0.759582972952604E+000 0.183381972603444E+000 0.000000000000000E+000
 0.875000000000000E+000 0.375000000000000E+000 0.000000000000000E+000
 0.718750000000000E+000 0.343750000000000E+000 0.000000000000000E+000
 0.697916666666667E+000 0.437500000000000E+000 0.000000000000000E+000
 0.750000000000000E+000 0.572048611111111E+000 0.000000000000000E+000
 0.787123226950355E+000 0.408133865248227E+000 0.000000000000000E+000
 0.804687500000000E+000 0.320312500000000E+000 0.000000000000000E+000
 0.700214460784314E+000 0.513965482026144E+000 0.000000000000000E+000
 0.783021635712153E+000 0.493366127722916E+000 0.000000000000000E+000
 0.625000000000000E+000 0.625000000000000E+000 0.000000000000000E+000
 0.848380638879200E+000 0.437500000000000E+000 0.000000000000000E+000
 0.562500000000000E+000 0.404604515401992E-001 0.000000000000000E+000
 0.875000000000000E+000 0.625000000000000E+000 0.000000000000000E+000
 0.750000000000000E+000 0.750000000000000E+000 0.000000000000000E+000
 0.697046765904942E+000 0.621060933265583E+000 0.000000000000000E+000
 0.200520833333333E+000 0.494791666666667E+000 0.000000000000000E+000
 0.429642360217793E+000 0.800955091165693E+000 0.000000000000000E+000
 0.453073336954457E+000 0.687500000000000E+000 0.000000000000000E+000
 0.548183885155829E+000 0.693587592964698E+000 0.000000000000000E+000
 0.750000000000000E+000 0.100000000000000E+001 0.000000000000000E+000
 0.573843760532799E+000 0.437500000000000E+000 0.000000000000000E+000
 0.500000000000000E+000 0.550126792242997E+000 0.000000000000000E+000
 0.511972906944656E+000 0.477455600833011E+000 0.000000000000000E+000
 0.437507615834863E+000 0.452402202857321E+000 0.000000000000000E+000
 0.546458141439317E+000 0.614345103225503E+000 0.000000000000000E+000
 0.571440414895569E+000 0.547357897962524E+000 0.000000000000000E+000
 0.450991397292447E+000 0.610087136082382E+000 0.000000000000000E+000
 0.875000000000000E+000 0.000000000000000E+000 0.000000000000000E+000
 0.100000000000000E+001 0.250000000000000E+000 0.000000000000000E+000
 0.100000000000000E+001 0.375000000000000E+000 0.000000000000000E+000
 0.687500000000000E+000 0.700324699898860E+000 0.000000000000000E+000
 0.812500000000000E+000 0.687500000000000E+000 0.000000000000000E+000
 0.804621866531165E+000 0.617121866531165E+000 0.000000000000000E+000
 0.825181931429427E+000 0.549770415540467E+000 0.000000000000000E+000
 0.100000000000000E+001 0.625000000000000E+000 0.000000000000000E+000
 0.100000000000000E+001 0.750000000000000E+000 0.000000000000000E+000
[...]
CELL_DATA         1212
SCALARS tdens double 1
LOOKUP_TABLE default
 0.416990197107184E-011
 0.159616588750987E-011
 0.217148998178407E-011
 0.213050196657684E-011
 0.285110465273210E-010
 0.658342232865633E-010
 0.247782229386412E-010
 0.305282649187052E-010
 0.292760561853591E-001
 0.308737674263842E-001
 0.733932758845100E-001
 0.133129509970605E+000
 0.122770306996869E-011
 0.107699183178537E-011
 0.100000000000000E-011
 0.100000000000000E-011
 0.157018553087750E-011
 0.415239960505028E-011
 0.216085398754974E-011
 0.211313015669672E-011
 0.205242579176852E-011
 0.346533354093198E-011
 0.338514483541551E-011
 0.278733620362102E-011
 0.727544434825725E-011
 0.438030594819573E-011
 0.494539969229096E-011
 0.538831357185475E-011
 0.554173330550716E-009
 0.193939390907120E-009
 0.603583462677835E-010
 0.182590666683971E-009
 0.256107636092611E-001
 0.436767161757876E+000
 0.457493227781387E-002
 0.107983992917234E+000
 0.100000000000000E-011
 0.100000000000000E-011
 0.100000000000000E-011
 0.100000000000000E-011
 0.735072936423252E-010
 0.318836689632952E-010
 0.580828258262531E-010
 0.567380635868270E-010
 0.290513003830465E-011
 0.359981450424725E-011
 0.426426747562553E-011
 0.351917767819373E-011
 0.241766979405306E-010
 0.294915301357333E-010
 0.484675168133465E-011
 0.138813314824512E-010
 0.693490086088928E-001
 0.174566228390354E-001
 0.188066366707754E-001
 0.932890753428781E-001
 0.120065431848736E-010
 0.113335652979716E-010
 0.133776217166569E-010
 0.121083488855957E-010
 0.363299807769262E-001
 0.120303988479495E+000
 0.174539355343805E+001
 0.402013780702918E+000
 0.104140638717457E-011
 0.100000000000000E-011
 0.100000000000000E-011
 0.100000000000000E-011
 0.111810407345258E-011
 0.123664286877814E-011
 0.141923043807024E-011
 0.126141585216043E-011
 0.132490326072644E-011
 0.180338106137304E-011
 0.100000000000000E-011
 0.102718041055496E-011
 0.950200913391129E-004
 0.733367206837411E-002
 0.496731496690877E-005
 0.287545502621886E-003
 0.542908564925864E-010
 0.107928354877731E-010
 0.409956141509919E-010
 0.264920463181040E-010
 0.100000000000000E-011
 0.100000000000000E-011
 0.100000000000000E-011
 0.100000000000000E-011
 0.233524506779761E-001
 0.905308160831906E-001
 0.555592429909895E-002
 0.368935757120931E-001
 0.173415198971121E-011
 0.146642861578658E-011
 0.149751365981498E-011
 0.158770159618188E-011
 0.101614415854940E-011
 0.100000000000000E-011
 0.100000000000000E-011
 0.100000000000000E-011
 0.595772074191987E-011
 0.732439514717352E-011
 0.134368250353605E-010
 0.788992773002577E-011
 0.163557290095473E-011
 0.140321365455823E-011
 0.182597669393331E-011
 0.158010723433136E-011
 0.311504828642450E-001
 0.125481149065088E-001
 0.264075919171391E+000
 0.239398008663500E-004
 0.671085994041853E-011
 0.144178850976350E-011
 0.192065166483750E-011
 0.234270503102457E-011
 0.431047636056339E-010
 0.313516903359742E-009
 0.837995901912556E-010
 0.670828369399379E-010
 0.392617370929305E-011
 0.206849129142230E-011
 0.255942213030359E-011
 0.270797837786913E-011
 0.354104392814592E-011
 0.142961828232395E-011
 0.140453915952233E-011
 0.174094074045606E-011
 0.663844945204853E-002
 0.603166277725443E-001
 0.528719606007014E-002
 0.288937674227063E-001
 0.189963132839476E-010
 0.969921282713016E-011
 0.267252777089468E-010
 0.185181807407225E-010
 0.392981268205701E-010
 0.109370775896741E-009
 0.368244739207743E-010
 0.440433478308968E-010
 0.177916469731179E-011
 0.225670054870299E-011
 0.315091492999830E-011
 0.236507586594391E-011
 0.118933109376951E-011
 0.100000000000000E-011
 0.100307492233162E-011
 0.100000000000000E-011
 0.595217753262467E-011
 0.301080501594399E-011
 0.111755316627340E-010
 0.528964737734202E-011
 0.283868118510214E-011
 0.455998647156976E-011
 0.416512385902550E-011
 0.376418775217355E-011
 0.100000000000000E-011
 0.100000000000000E-011
 0.100000000000000E-011
 0.100000000000000E-011
 0.103962829300238E-011
 0.100000000000000E-011
 0.100000000000000E-011
 0.100000000000000E-011
 0.144836259372760E-011
 0.127364731153957E-011
 0.100000000000000E-011
 0.100976034075235E-011
 0.947463463060946E+000
 0.433502624731630E+000
 0.315517625294476E-002
 0.653658614425812E+000
 0.217158270883514E-005
 0.535848077214572E-005
 0.343844805005511E+001
 0.308655870900956E-005
 0.307247502967929E+000
 0.765666560160208E-001
 0.569083585814384E+000
 0.302636385236185E-001
 0.133854851345359E-010
 0.157949777388705E-010
 0.192058228276736E-010
 0.158494366868848E-010
 0.112179275464946E-010
 0.300084228553214E-011
 0.620208856375613E-011
 0.540554863932588E-011
 0.236140854960461E-011
 0.205043896352748E-011
 0.399805110739611E-011
 0.262284871118673E-011
 0.152169796110333E-011
 0.147129694288978E-011
 0.174550361691916E-011
 0.160063395181497E-011
 0.950800768615181E-011
 0.150155837750868E-010
 0.722759098521964E-011
 0.968929522414915E-011
 0.182798933500788E-011
 0.140332370818248E-011
 0.163178418726825E-011
 0.158005651496428E-011
 0.434926078250929E-011
 0.683435356380002E-011
 0.528898073241274E-011
 0.545804137776146E-011
 0.120506578733386E-011
 0.142512668215223E-011
 0.184013196062297E-011
 0.148440261703834E-011
 0.100000000000000E-011
 0.108857041184500E-011
 0.100000000000000E-011
 0.100000000000000E-011
 0.184445025835551E-011
 0.299906224938008E-011
 0.231064960037701E-011
 0.232437702718199E-011
 0.313040466046624E-011
 0.477705720066171E-011
 0.503670587890230E-011
 0.422262085514451E-011
 0.111743904284529E-010
 0.146647442525447E-010
 0.133441003324685E-010
 0.131418845835219E-010
 0.112289042516838E-010
 0.219263004549158E-010
 0.313644963131886E-010
 0.206987692335451E-010
 0.174223867696733E-008
 0.261465715432553E-009
 0.242712755380465E-009
 0.272374232595326E-009
 0.262425939023136E-009
 0.678418105318889E-009
 0.101882251162441E-008
 0.882535512111593E-009
 0.161357306674931E-009
 0.484654502949721E-009
 0.729657892163552E-010
 0.169380128094744E-009
 0.162566981096107E-011
 0.127446123358473E-011
 0.194095073877587E-011
 0.155952580745279E-011
 0.699015420616663E-009
 0.484872611637418E-009
 0.126356418714742E-009
 0.283112267183342E-009
 0.776036582977915E-010
 0.413582466868030E-009
 0.173512593094530E-009
 0.171853893853067E-009
 0.493449743780186E-011
 0.710014392321565E-011
 0.719735621531360E-011
 0.623560034742298E-011
 0.211742663619760E-010
 0.123797932510719E-010
 0.257363848409338E-010
 0.198243248208939E-010
 0.873429425335570E-011
 0.101305293114798E-010
 0.113356548663334E-010
 0.968158152983557E-011
 0.500076078174997E-007
 0.152713341569314E-006
 0.265403310639625E-005
 0.906368222963287E-007
 0.173820137080315E-009
 0.407996463042924E-010
 0.132634610244184E-009
 0.145494962268289E-009
 0.482364722665831E-010
 0.113270546347001E-009
 0.373846917260713E-010
 0.500350490440905E-010
 0.739000537138554E-010
 0.772983201442246E-010
 0.272327182403034E-010
 0.657811652334876E-010
 0.638776232503756E-011
 0.703792526540165E-011
 0.486341559565816E-011
 0.603893018693049E-011
 0.262309666583205E-010
 0.799473852526967E-010
 0.438474487853403E-010
 0.413373115503377E-010
 0.254577170282909E-009
 0.150917766129659E-008
 0.171699277434575E-008
 0.150986685630488E-008
 0.150927306650517E-010
 0.247256265626208E-010
 0.121654737134748E-010
 0.154728775293999E-010
 0.109098832193816E-011
 0.100000000000000E-011
 0.100000000000000E-011
 0.100000000000000E-011
 0.817830618030270E-011
 0.111776110719869E-010
 0.909826113888271E-011
 0.930363705499152E-011
 0.194803578392067E-010
 0.276250264005042E-010
 0.165748025193433E-010
 0.198640047929153E-010
 0.892760042282117E-011
 0.102033013704112E-010
 0.998995834872261E-011
 0.979351391837947E-011
 0.107000333254175E-010
 0.137101587998803E-010
 0.108700154029019E-010
 0.113722059606733E-010
 0.100000000000000E-011
 0.121428348929673E-011
 0.111931125813663E-011
 0.104211720318459E-011
 0.115163916406928E-011
 0.100000000000000E-011
 0.106333516899508E-011
 0.100000000000000E-011
 0.602022070730226E-011
 0.194701706587378E-011
 0.137009583783817E-011
 0.211360440493725E-011
 0.465858950384429E-010
 0.349896432737649E-010
 0.964751052727723E-011
 0.230914283024232E-010
 0.134745791935923E-010
 0.975763245741012E-011
 0.644625139156291E-011
 0.952978618058940E-011
 0.235829081599113E-011
 0.387489987772045E-011
 0.204848372531446E-011
 0.260823777630247E-011
 0.127928169324851E+001
 0.551438959571706E+000
 0.117019287280858E+000
 0.911723886497131E+000
 0.482957649190136E-011
 0.745343310473726E-011
 0.592035550781560E-011
 0.561982158787797E-011
 0.119886103738658E-011
 0.176307756575684E-011
 0.142660801692344E-011
 0.145654675111453E-011
 0.374451515949926E-011
 0.238874808491102E-011
 0.203252508151887E-011
 0.259612255056392E-011
 0.117604502918469E-011
 0.100000000000000E-011
 0.109552141165965E-011
 0.100821908651131E-011
 0.357407155636884E-011
 0.137298167012281E-011
 0.143442077947406E-011
 0.172868435608333E-011
 0.976522002841543E-001
 0.168535164090239E-001
 0.285515343456002E+000
 0.259884720167029E-001
 0.584548047887521E-002
 0.980659725354525E-001
 0.558481926875453E-002
 0.379865044771813E-001
 0.174264853642521E-009
 0.791424081918490E-009
 0.569701038535862E-009
 0.691180337329314E-009
 0.221826116631064E-010
 0.128562081782778E-010
 0.198985173067421E-010
 0.183577532500424E-010
 0.104129127983147E-009
 0.392894381615891E-010
 0.194305413277505E-009
 0.121466084435265E-009
 0.455419068870557E-010
 0.159454060731697E-009
 0.265573938020562E-009
 0.143353233383949E-009
 0.113358203519764E-010
 0.129583953969635E-010
 0.922935151932541E-011
 0.113862495011765E-010
 0.370711376098990E-010
 0.324246583046446E-010
 0.822801126677254E-010
 0.392862860448788E-010
 0.133824861554301E-010
 0.123021043343437E-010
 0.207412572807730E-010
 0.141583007309765E-010
 0.144612393787536E-010
 0.225517029959959E-010
 0.164021722516596E-010
 0.170236832518501E-010
 0.991975333151314E-011
 0.681810346704030E-011
 0.882962556220591E-011
 0.857925345308313E-011
 0.709622993756517E-011
 0.975008802715841E-011
 0.827583166434318E-011
 0.792551339834054E-011
 0.457476203890534E-009
 0.108730227823966E-008
 0.112483607271755E-009
 0.274841868974060E-009
 0.419122570415537E-010
 0.770044855754526E-010
 0.372939030576429E-009
 0.645168260017465E-010
 0.449455352489448E-009
 0.622313835246917E-010
 0.127512318195917E-009
 0.131317621463895E-009
 0.150055406697519E-010
 0.233193653031698E-010
 0.241477736036301E-010
 0.216439338717820E-010
 0.835222049075452E-011
 0.690848963235708E-011
 0.152571120634496E-010
 0.914146424121470E-011
 0.134706099612634E+001
 0.877113237687179E+000
 0.921049643729717E-002
 0.161817684690498E+001
 0.279477874113810E-001
 0.593879395585760E-002
 0.188720302900428E+000
 0.512739984571519E-001
 0.780139119488060E-011
 0.105819820450114E-010
 0.802518128868509E-011
 0.858851515647046E-011
 0.186964009370283E-001
 0.174196704187339E-001
 0.571928532238836E-001
 0.102561290520351E+000
 0.421901531414847E-001
 0.836374640525972E-001
 0.413753874048753E-001
 0.284483708556564E-001
 0.265949092601416E-001
 0.647946038905150E+000
 0.327031184452928E+000
 0.445812158709862E+000
 0.777429295876097E-001
 0.340969733098075E+000
 0.467840192375264E+000
 0.608756187788956E+000
 0.188752764060174E-010
 0.412796085406003E-010
 0.248115355153988E-010
 0.253915392972044E-010
 0.100000000000000E-011
 0.100000000000000E-011
 0.100000000000000E-011
 0.100000000000000E-011
 0.100000000000000E-011
 0.100000000000000E-011
 0.100000000000000E-011
 0.100000000000000E-011
 0.977382140403832E-001
 0.738748124705159E-001
 0.209944696643593E-001
 0.855409669080718E-001
 0.184817576523760E-011
 0.126689338624742E-011
 0.161225311857311E-011
 0.152764673865687E-011
 0.149927027586953E-001
 0.311417825507528E+000
 0.120600143587842E-001
 0.108972277953682E-001
 0.463457031462620E-001
 0.267938483886540E-001
 0.210682895437811E+000
 0.151357819478070E-001
 0.833628523075857E-002
 0.609680008549677E-002
 0.105857305479637E+000
 0.334561818812809E-001
 0.517839403606752E-002
 0.912879150422120E-001
 0.531068559814249E-002
 0.355648275754321E-001
 0.183470035810048E-005
 0.364494321913264E-005
 0.400724333261972E-005
 0.428475076225781E-005
 0.319721855199137E-001
 0.175591257648991E-001
 0.857286940934555E+000
 0.102387547013315E+000
 0.804910490136859E+000
 0.281626893858988E+000
 0.193515173216234E-001
 0.666688167424549E+000
 0.145394145490917E-003
 0.686455038310980E-003
 0.135015976882051E+001
 0.213680149204121E-001
 0.460877362596707E-003
 0.645691184329212E-001
 0.275771280010254E+000
 0.374644972547191E-001
 0.206839175155057E-001
 0.747399674162344E-001
 0.705274542412445E+000
 0.400823894877974E-001
 0.407741906442184E-004
 0.574184429036350E-001
 0.629406845466944E-001
 0.172389630157492E-001
 0.107979301924083E-001
 0.148333867203001E+001
 0.912963878342041E+000
 0.157653854075953E+001
 0.192155762314764E+001
 0.117413897395952E-001
 0.230543026060403E+001
 0.233390111445515E+001
 0.364832723978309E+000
 0.361045044297549E-001
 0.242813174455653E+000
 0.294093375736300E+000
 0.521123713741873E-002
 0.176168673885836E+000
 0.604404604837307E-002
 0.366591766694907E-001
 0.187652224639621E-005
 0.518209286764886E-005
 0.253233147666325E+000
 0.184606742970430E-005
 0.296210909695298E-009
 0.264592499139633E-009
 0.264200592904548E-008
 0.301444906753628E-009
 0.123410224796869E-011
 0.111301401357371E-011
 0.141451155168038E-011
 0.125734851326378E-011
 0.100000000000000E-011
 0.117582031896216E-011
 0.100000000000000E-011
 0.100000000000000E-011
 0.138067374174747E-001
 0.202226912310737E-001
 0.149881116242751E-004
 0.123006793918374E-001
 0.637316691955910E+000
 0.207645600070360E+000
 0.168891033116008E+000
 0.214074402379129E+000
 0.688704416059965E-005
 0.893548641549698E+000
 0.324483816215909E-001
 0.103213228802486E+000
 0.593526217014015E+000
 0.149498888230206E+001
 0.353761424286338E+000
 0.710204126876937E+000
 0.226824021614800E-002
 0.772357360427281E-002
 0.308900996126526E-001
 0.100825942349379E-001
 0.137831929760071E+001
 0.645490505841057E-001
 0.158629214773609E-001
 0.249070434403980E+000
 0.350926180675623E+001
 0.493742301036957E-006
 0.335495603896443E+001
 0.458993493906169E+001
 0.203585574215864E-006
 0.180928783617625E-008
 0.121976653159005E-008
 0.152330548131689E-008
 0.229589574221854E+001
 0.425154422697304E-004
 0.159499490000637E-005
 0.229611660790782E-005
 0.217550555250066E-008
 0.121646212139988E-008
 0.264261923881897E-009
 0.137112777110465E-008
 0.136209495849478E-009
 0.121197727279229E-008
 0.203296115365037E-009
 0.206359902167490E-009
 0.312946982712857E-006
 0.927367686213272E-006
 0.313507396460280E-007
 0.673560426372368E-006
 0.647901145398180E-005
 0.120226977706510E+000
 0.104893111227126E-004
 0.217183185819016E-004
 0.106305074884159E-001
 0.830638507971279E-002
 0.988114170840252E+000
 0.130989238165537E+000
 0.323809475844641E-005
 0.255685400502844E-005
 0.174210365789279E-005
 0.249653080275058E-005
 0.204625603221169E+000
 0.840373857339824E-004
 0.276822389270289E-004
 0.305479472642953E-004
 0.502818382339733E-003
 0.191222526372974E+001
 0.121260001970317E-004
 0.160974407199876E-004
 0.100216671792657E-005
 0.411439158192962E+001
 0.318761627764534E+001
 0.438196022012806E+001
 0.493399378910135E-006
 0.352727879949611E-007
 0.344610019673571E-007
 0.281320961884056E-007
 0.149298830837788E-006
 0.494688178804195E-007
 0.227841027206200E-005
 0.789285218963516E-007
 0.943597889707220E-006
 0.318160929993055E-006
 0.308192353709095E-007
 0.636373720357832E-006
 0.121086863361971E-005
 0.139262191865306E-005
 0.444566825706691E+001
 0.613568046852436E-006
 0.307989782605506E-011
 0.248765425731107E-011
 0.492448787583510E-011
 0.323013148375566E-011
 0.192434778420572E-010
 0.319000444199862E-010
 0.426927460538839E-010
 0.300760006305847E-010
 0.112167654164141E-010
 0.168870950236814E-010
 0.154433781793213E-010
 0.144736507747844E-010
 0.158141318204948E-010
 0.109039511087996E-010
 0.116413196902609E-010
 0.121718885176889E-010
 0.420465905145987E-009
 0.337157029817155E-009
 0.672813562887487E-010
 0.361788460855750E-009
 0.648314121923285E-010
 0.457192780554844E-009
 0.977049205100343E-010
 0.100172965633408E-009
 0.142798580162325E-010
 0.176733738917020E-010
 0.121746069110579E-010
 0.145176842288989E-010
 0.132947642623926E-009
 0.858675049780004E-009
 0.127985688865506E-008
 0.830055648021138E-009
 0.396958018465669E-011
 0.357722318595797E-011
 0.622687314612881E-011
 0.435886644534125E-011
 0.193701902395227E+000
 0.684953820755516E-001
 0.193380626582862E+000
 0.152493653618417E+000
 0.122589962385285E-010
 0.224986409161826E-010
 0.149559406735953E-010
 0.154853829835516E-010
 0.100000000000000E-011
 0.148208643250166E-011
 0.151325942379174E-011
 0.117866247896455E-011
 0.847242070063878E-009
 0.716824090012235E-010
 0.315095405937369E-009
 0.134864724149769E-009
 0.941691673229154E-011
 0.114973904087685E-010
 0.791290739626877E-011
 0.958954224639356E-011
 0.239024095702666E-010
 0.242903256122622E-010
 0.129190524980986E-010
 0.213586386290553E-010
 0.632892070793919E-010
 0.360728262172974E-009
 0.572125048439430E-010
 0.629426635618971E-010
 0.585595626850136E-002
 0.545795421077972E-001
 0.715149661956169E-002
 0.331035664962432E-001
 0.364916187428406E+000
 0.255630899910400E+001
 0.809901262864250E+000
 0.113811389951713E+001
 0.226288058269656E-001
 0.300697385533303E+000
 0.424241600840725E+000
 0.386779820775911E+000
 0.471750552580182E-011
 0.706835248691736E-011
 0.642138643989180E-011
 0.570423020530681E-011
 0.205153408241770E-010
 0.110118864736598E-010
 0.982974034218049E-011
 0.121451250464302E-010
 0.216468343105599E-010
 0.956731554708277E-011
 0.921413192662839E-011
 0.115085616032279E-010
 0.520941495170206E-009
 0.766375546752117E-010
 0.510639527067564E-009
 0.402506309559875E-009
 0.762606289273810E-001
 0.728447457933785E-003
 0.825069095174523E-002
 0.132546912499858E-001
 0.718577367003094E+000
 0.459568704205845E-001
 0.377865752765310E+000
 0.713922517119458E+000
 0.213650007900372E+000
 0.502672356065774E+000
 0.398042819198130E+000
 0.609290557281324E+000
 0.100000000000000E-011
 0.100000000000000E-011
 0.100000000000000E-011
 0.100000000000000E-011
 0.137717963448797E-011
 0.216893102932895E-011
 0.670361051196014E-011
 0.218397052534174E-011
 0.151004736930282E-001
 0.154390840375639E-001
 0.215939620541845E-001
 0.358896114798337E-003
 0.204884861517808E-001
 0.117413566958114E-001
 0.125517636150581E-001
 0.218983912171454E-002
 0.163357803247220E+000
 0.392091753227611E-001
 0.579879022767162E-001
 0.975766196029460E-001
 0.965394590231988E-002
 0.577236589005374E-002
 0.404884026526855E-001
 0.652223131484091E-001
 0.126399795360835E-001
 0.516154832731657E-001
 0.630540318877580E+000
 0.136199209389457E+000
 0.320477257103191E-001
 0.207046077213313E+000
 0.655011990801536E-002
 0.624170729506682E-001
 0.148807438020431E+000
 0.743341445891408E-001
 0.418642575100147E-001
 0.671279477501975E-001
 0.105503814872895E-001
 0.991319090317452E-001
 0.277496285625112E+000
 0.178701354054554E-001
 0.693074549254795E-002
 0.560627253922114E+000
 0.651855419212814E+000
 0.112056619765484E+001
 0.111392995177714E+000
 0.153621431373103E-004
 0.212853102875653E+000
 0.124176411912035E+000
 0.430020033839984E-001
 0.218579114990167E+000
 0.213639987432689E-001
 0.920159183178589E-001
 0.813669672526006E-011
 0.178588906207567E-010
 0.435492105250916E-011
 0.897134079538547E-011
 0.201913566432864E-006
 0.105453245009263E-006
 0.202358138130412E-008
 0.184404243868816E-006
 0.273880906120294E-002
 0.184841186958189E-002
 0.258937655945915E-001
 0.976788845990011E-002
 0.157073398335657E-001
 0.400905888655445E-001
 0.171108727572283E-001
 0.608863337804217E-004
 0.102630575582185E-010
 0.899196503724937E-011
 0.103329406786386E-010
 0.988967913287131E-011
 0.112844602964200E-010
 0.105277093969810E-010
 0.877163679949035E-011
 0.992490776427022E-011
 0.122989198230420E-002
 0.936068013065186E-001