# vtk DataFile Version 3.0
Unstructured Grid
ASCII
DATASET UNSTRUCTURED_GRID
FIELD FieldData 1
TIME 1 1 float
  0.560625E+02
POINTS          640 double
 0.000000000000000E+000 0.000000000000000E+000 0.000000000000000E+000
 0.100000000000000E+001 0.000000000000000E+000 0.000000000000000E+000
 0.100000000000000E+001 0.100000000000000E+001 0.000000000000000E+000
 0.000000000000000E+000 0.100000000000000E+001 0.000000000000000E+000
 0.125000000000000E+000 0.250000000000000E+000 0.000000000000000E+000
 0.375000000000000E+000 0.250000000000000E+000 0.000000000000000E+000
 0.375000000000000E+000 0.750000000000000E+000 0.000000000000000E+000
 0.125000000000000E+000 0.750000000000000E+000 0.000000000000000E+000
 0.625000000000000E+000 0.250000000000000E+000 0.000000000000000E+000
 0.875000000000000E+000 0.250000000000000E+000 0.000000000000000E+000
 0.875000000000000E+000 0.750000000000000E+000 0.000000000000000E+000
 0.625000000000000E+000 0.750000000000000E+000 0.000000000000000E+000
 0.100000000000000E+001 0.500000000000000E+000 0.000000000000000E+000
 0.000000000000000E+000 0.500000000000000E+000 0.000000000000000E+000
 0.500000000000000E+000 0.000000000000000E+000 0.000000000000000E+000
 0.125000000000000E+000 0.500000000000000E+000 0.000000000000000E+000
 0.000000000000000E+000 0.750000000000000E+000 0.000000000000000E+000
 0.000000000000000E+000 0.250000000000000E+000 0.000000000000000E+000
 0.000000000000000E+000 0.875000000000000E+000 0.000000000000000E+000
 0.000000000000000E+000 0.125000000000000E+000 0.000000000000000E+000
 0.625000000000000E-001 0.812500000000000E+000 0.000000000000000E+000
 0.125000000000000E+000 0.375000000000000E+000 0.000000000000000E+000
 0.125000000000000E+000 0.625000000000000E+000 0.000000000000000E+000
 0.500000000000000E+000 0.100000000000000E+001 0.000000000000000E+000
 0.250000000000000E+000 0.100000000000000E+001 0.000000000000000E+000
 0.125000000000000E+000 0.100000000000000E+001 0.000000000000000E+000
 0.729166666666667E-001 0.885416666666667E+000 0.000000000000000E+000
 0.000000000000000E+000 0.625000000000000E+000 0.000000000000000E+000
 0.625000000000000E-001 0.562500000000000E+000 0.000000000000000E+000
 0.375000000000000E+000 0.500000000000000E+000 0.000000000000000E+000
 0.375000000000000E+000 0.100000000000000E+001 0.000000000000000E+000
 0.250000000000000E+000 0.000000000000000E+000 0.000000000000000E+000
 0.625000000000000E-001 0.187500000000000E+000 0.000000000000000E+000
 0.143518518518519E+000 0.775462962962963E-001 0.000000000000000E+000
 0.156250000000000E+000 0.156250000000000E+000 0.000000000000000E+000
 0.729166666666667E-001 0.114583333333333E+000 0.000000000000000E+000
 0.125000000000000E+000 0.000000000000000E+000 0.000000000000000E+000
 0.250000000000000E+000 0.250000000000000E+000 0.000000000000000E+000
 0.375000000000000E+000 0.000000000000000E+000 0.000000000000000E+000
 0.187500000000000E+000 0.218750000000000E+000 0.000000000000000E+000
 0.312500000000000E+000 0.762453007518797E-001 0.000000000000000E+000
 0.270259392278489E+000 0.159169301283415E+000 0.000000000000000E+000
 0.365310977506407E+000 0.155367112827996E+000 0.000000000000000E+000
 0.312500000000000E+000 0.216265619131990E+000 0.000000000000000E+000
 0.500000000000000E+000 0.189389379011873E+000 0.000000000000000E+000
 0.426456487258648E+000 0.196919158251449E+000 0.000000000000000E+000
 0.451620395371675E+000 0.941243892751461E-001 0.000000000000000E+000
 0.381804756165356E+000 0.871724813114945E-001 0.000000000000000E+000
 0.437500000000000E+000 0.273708879364394E-001 0.000000000000000E+000
 0.000000000000000E+000 0.375000000000000E+000 0.000000000000000E+000
 0.625000000000000E-001 0.312500000000000E+000 0.000000000000000E+000
 0.250000000000000E+000 0.750000000000000E+000 0.000000000000000E+000
 0.158482142857143E+000 0.851934523809524E+000 0.000000000000000E+000
 0.210861885404568E+000 0.921875000000000E+000 0.000000000000000E+000
 0.136017278952732E+000 0.925863358051789E+000 0.000000000000000E+000
 0.625000000000000E-001 0.687500000000000E+000 0.000000000000000E+000
 0.250000000000000E+000 0.437500000000000E+000 0.000000000000000E+000
 0.247528011619582E+000 0.839830719156545E+000 0.000000000000000E+000
 0.312500000000000E+000 0.796669265575374E+000 0.000000000000000E+000
 0.419664368355990E+000 0.875000000000000E+000 0.000000000000000E+000
 0.313183356674252E+000 0.918387829019328E+000 0.000000000000000E+000
 0.312500000000000E+000 0.100000000000000E+001 0.000000000000000E+000
 0.380617553087688E+000 0.931527612480385E+000 0.000000000000000E+000
 0.187500000000000E+000 0.785936956899548E+000 0.000000000000000E+000
 0.350379273974835E+000 0.857317802397078E+000 0.000000000000000E+000
 0.228046514569416E+000 0.817347524546315E-001 0.000000000000000E+000
 0.187500000000000E+000 0.312500000000000E+000 0.000000000000000E+000
 0.625000000000000E-001 0.437500000000000E+000 0.000000000000000E+000
 0.197916666666667E+000 0.385416666666667E+000 0.000000000000000E+000
 0.375000000000000E+000 0.375000000000000E+000 0.000000000000000E+000
 0.750000000000000E+000 0.000000000000000E+000 0.000000000000000E+000
 0.625000000000000E-001 0.959280303030303E+000 0.000000000000000E+000
 0.234375000000000E+000 0.562500000000000E+000 0.000000000000000E+000
 0.187500000000000E+000 0.687500000000000E+000 0.000000000000000E+000
 0.193892045454545E+000 0.618607954545455E+000 0.000000000000000E+000
 0.375000000000000E+000 0.625000000000000E+000 0.000000000000000E+000
 0.283775504647110E+000 0.640801989544002E+000 0.000000000000000E+000
 0.281298714846257E+000 0.504888901855782E+000 0.000000000000000E+000
 0.331282779604339E+000 0.562500000000000E+000 0.000000000000000E+000
 0.338845441361880E+000 0.687500000000000E+000 0.000000000000000E+000
 0.500000000000000E+000 0.775815254846569E+000 0.000000000000000E+000
 0.625000000000000E-001 0.407196969696970E-001 0.000000000000000E+000
 0.328125000000000E+000 0.437500000000000E+000 0.000000000000000E+000
 0.284143518518519E+000 0.340856481481482E+000 0.000000000000000E+000
 0.312500000000000E+000 0.278356481481482E+000 0.000000000000000E+000
 0.625000000000000E+000 0.500000000000000E+000 0.000000000000000E+000
 0.410581328448014E+000 0.312500000000000E+000 0.000000000000000E+000
 0.543730092976870E+000 0.258404709955172E+000 0.000000000000000E+000
 0.625000000000000E+000 0.375000000000000E+000 0.000000000000000E+000
 0.500000000000000E+000 0.404784409423024E+000 0.000000000000000E+000
 0.590394028376448E+000 0.312500000000000E+000 0.000000000000000E+000
 0.467392923590959E+000 0.261422480241605E+000 0.000000000000000E+000
 0.508234229043035E+000 0.327522431406248E+000 0.000000000000000E+000
 0.625000000000000E+000 0.000000000000000E+000 0.000000000000000E+000
 0.537311919648379E+000 0.110523699730938E+000 0.000000000000000E+000
 0.750000000000000E+000 0.250000000000000E+000 0.000000000000000E+000
 0.593146640296986E+000 0.172723366619635E+000 0.000000000000000E+000
 0.623771215502605E+000 0.890722450407200E-001 0.000000000000000E+000
 0.687500000000000E+000 0.454068088573020E-001 0.000000000000000E+000
 0.793069391389776E+000 0.125000000000000E+000 0.000000000000000E+000
 0.695513657869308E+000 0.162768437982326E+000 0.000000000000000E+000
 0.687500000000000E+000 0.250000000000000E+000 0.000000000000000E+000
 0.875000000000000E+000 0.500000000000000E+000 0.000000000000000E+000
 0.727921748554044E+000 0.101601148842529E+000 0.000000000000000E+000
 0.759582972952604E+000 0.183381972603444E+000 0.000000000000000E+000
 0.875000000000000E+000 0.375000000000000E+000 0.000000000000000E+000
 0.718750000000000E+000 0.343750000000000E+000 0.000000000000000E+000
 0.697916666666667E+000 0.437500000000000E+000 0.000000000000000E+000
 0.750000000000000E+000 0.572048611111111E+000 0.000000000000000E+000
 0.787123226950355E+000 0.408133865248227E+000 0.000000000000000E+000
 0.804687500000000E+000 0.320312500000000E+000 0.000000000000000E+000
 0.700214460784314E+000 0.513965482026144E+000 0.000000000000000E+000
 0.783021635712153E+000 0.493366127722916E+000 0.000000000000000E+000
 0.625000000000000E+000 0.625000000000000E+000 0.000000000000000E+000
 0.848380638879200E+000 0.437500000000000E+000 0.000000000000000E+000
 0.562500000000000E+000 0.404604515401992E-001 0.000000000000000E+000
 0.875000000000000E+000 0.625000000000000E+000 0.000000000000000E+000
 0.750000000000000E+000 0.750000000000000E+000 0.000000000000000E+000
 0.697046765904942E+000 0.621060933265583E+000 0.000000000000000E+000
 0.200520833333333E+000 0.494791666666667E+000 0.000000000000000E+000
 0.429642360217793E+000 0.800955091165693E+000 0.000000000000000E+000
 0.453073336954457E+000 0.687500000000000E+000 0.000000000000000E+000
 0.548183885155829E+000 0.693587592964698E+000 0.000000000000000E+000
 0.750000000000000E+000 0.100000000000000E+001 0.000000000000000E+000
 0.573843760532799E+000 0.437500000000000E+000 0.000000000000000E+000
 0.500000000000000E+000 0.550126792242997E+000 0.000000000000000E+000
 0.511972906944656E+000 0.477455600833011E+000 0.000000000000000E+000
 0.437507615834863E+000 0.452402202857321E+000 0.000000000000000E+000
 0.546458141439317E+000 0.614345103225503E+000 0.000000000000000E+000
 0.571440414895569E+000 0.547357897962524E+000 0.000000000000000E+000
 0.450991397292447E+000 0.610087136082382E+000 0.000000000000000E+000
 0.875000000000000E+000 0.000000000000000E+000 0.000000000000000E+000
 0.100000000000000E+001 0.250000000000000E+000 0.000000000000000E+000
 0.100000000000000E+001 0.375000000000000E+000 0.000000000000000E+000
 0.687500000000000E+000 0.700324699898860E+000 0.000000000000000E+000
 0.812500000000000E+000 0.687500000000000E+000 0.000000000000000E+000
 0.804621866531165E+000 0.617121866531165E+000 0.000000000000000E+000
 0.825181931429427E+000 0.549770415540467E+000 0.000000000000000E+000
 0.100000000000000E+001 0.625000000000000E+000 0.000000000000000E+000
 0.100000000000000E+001 0.750000000000000E+000 0.000000000000000E+000
[...]
CELL_DATA         1212
SCALARS tdens double 1
LOOKUP_TABLE default
 0.438305920706012E-010
 0.168268176091035E-010
 0.228690794119670E-010
 0.224402998692465E-010
 0.295657581606321E-009
 0.677860039573404E-009
 0.257254172220857E-009
 0.316382421227498E-009
 0.513443285254508E-001
 0.330458552470786E-001
 0.765073928388582E-001
 0.150733457128631E+000
 0.129479164093584E-010
 0.113664610746479E-010
 0.891246491095189E-011
 0.989878560087162E-011
 0.165687232931151E-010
 0.436852884101390E-010
 0.227744438524937E-010
 0.222786759910562E-010
 0.216050681354937E-010
 0.364031106171305E-010
 0.355656557765682E-010
 0.293085905270199E-010
 0.761291657609114E-010
 0.459644062497430E-010
 0.518673964858037E-010
 0.564793075765410E-010
 0.563508747895680E-008
 0.197580460348436E-008
 0.624184741412199E-009
 0.186682244948228E-008
 0.257217873127417E-001
 0.422938279268432E+000
 0.457514623263196E-002
 0.108743746826685E+000
 0.773449227165740E-011
 0.689339471593008E-011
 0.750437349099859E-011
 0.724382073060018E-011
 0.756145109449605E-009
 0.330452260685926E-009
 0.599874264282882E-009
 0.585452242993991E-009
 0.305466053870944E-010
 0.378298361923921E-010
 0.447802429664855E-010
 0.369829371768027E-010
 0.253740650554846E-009
 0.308057217967374E-009
 0.509508949366152E-010
 0.145511407219680E-009
 0.103536114758406E+000
 0.252807365241913E-001
 0.177753347020598E-001
 0.109449484470047E+000
 0.125072694582830E-009
 0.118099923009541E-009
 0.139162514957344E-009
 0.126093021937518E-009
 0.345410469669375E-001
 0.105885187717730E+000
 0.176598932705107E+001
 0.362824786241313E+000
 0.109711968421681E-010
 0.810068474201210E-011
 0.816976362220255E-011
 0.861360855783382E-011
 0.117914327484580E-010
 0.130416154192868E-010
 0.149604730644190E-010
 0.133010154735457E-010
 0.139488060518665E-010
 0.188489171951430E-010
 0.828271811907293E-011
 0.108191709629266E-010
 0.596410365547276E-003
 0.173656650706926E-001
 0.370956673103868E-004
 0.178929666126736E-002
 0.565212195336816E-009
 0.113142893645270E-009
 0.428915601735376E-009
 0.276996561658591E-009
 0.907989102230072E-011
 0.765192633167333E-011
 0.692982725114359E-011
 0.741169989946008E-011
 0.242423072361178E-001
 0.998877462260929E-001
 0.558729144748722E-002
 0.384031499204357E-001
 0.182858382436371E-010
 0.154655737336960E-010
 0.158021655387894E-010
 0.167463269314839E-010
 0.107214563596982E-010
 0.815945896318647E-011
 0.833452792007589E-011
 0.868976704703069E-011
 0.624743728073595E-010
 0.768305386739483E-010
 0.140595305728201E-009
 0.827216254039162E-010
 0.172386938648787E-010
 0.147972106655997E-010
 0.192471617743181E-010
 0.166578013275644E-010
 0.312860633054710E-001
 0.129481505430302E-001
 0.264397693075210E+000
 0.164959192587904E-003
 0.702435633916545E-010
 0.152027215900432E-010
 0.202160580174204E-010
 0.246070953992371E-010
 0.449883516225281E-009
 0.323984309435868E-008
 0.874813457309724E-009
 0.700273459002438E-009
 0.412579509248437E-010
 0.217752135889670E-010
 0.269232882728585E-010
 0.284865621005507E-010
 0.372486135321014E-010
 0.150791248973021E-010
 0.148118572960817E-010
 0.183539606800276E-010
 0.661470573208097E-002
 0.576286064974226E-001
 0.535182901783267E-002
 0.287821506169765E-001
 0.198818340159347E-009
 0.101763359595075E-009
 0.280164019497077E-009
 0.193960012117949E-009
 0.404655056726891E-009
 0.111302336810462E-008
 0.379082779853153E-009
 0.452762035411087E-009
 0.187380481514775E-010
 0.237480110778784E-010
 0.331169226366486E-010
 0.248816637645151E-010
 0.125398696429519E-010
 0.807630919827386E-011
 0.105808181741602E-010
 0.989901594236415E-011
 0.625538478995275E-010
 0.316990731066156E-010
 0.117212834880704E-009
 0.556103443514750E-010
 0.298552500985872E-010
 0.479071401714873E-010
 0.437404536629884E-010
 0.395492929567120E-010
 0.775299794808672E-011
 0.689947597074626E-011
 0.755012463326574E-011
 0.729474800372479E-011
 0.109656763300385E-010
 0.820105325862644E-011
 0.813688838488837E-011
 0.865288503451477E-011
 0.151911088350095E-010
 0.134154939502206E-010
 0.825541467115940E-011
 0.106321054839002E-010
 0.908692825780634E+000
 0.410131264007860E+000
 0.544411642615943E-002
 0.641113830058226E+000
 0.193777460086913E-004
 0.452039265224323E-004
 0.332907668338026E+001
 0.264375363253998E-004
 0.315754714513820E+000
 0.787630393448908E-001
 0.496178468560734E+000
 0.419623474956625E-001
 0.139297282672968E-009
 0.164040449398076E-009
 0.199138840097875E-009
 0.164633109225678E-009
 0.117532235402317E-009
 0.315743318272480E-010
 0.651186182028182E-010
 0.567685901606949E-010
 0.248572473377251E-010
 0.215883803601077E-010
 0.420167341708955E-010
 0.276004050487929E-010
 0.160430159533236E-010
 0.155091108395791E-010
 0.183928352386840E-010
 0.168709446756004E-010
 0.995333914819403E-010
 0.157051224627682E-009
 0.757640621412430E-010
 0.101460059993958E-009
 0.192579204603371E-010
 0.147927575631347E-010
 0.171924484014949E-010
 0.166499912409778E-010
 0.456756874627236E-010
 0.716361338011852E-010
 0.554995871609068E-010
 0.572606113340421E-010
 0.127032163342413E-010
 0.150171619863798E-010
 0.193742896836120E-010
 0.156400872657848E-010
 0.102167939153474E-010
 0.114806447138996E-010
 0.790920650056742E-011
 0.937747432014236E-011
 0.194238584118776E-010
 0.315378450143183E-010
 0.243149514144992E-010
 0.244594868875384E-010
 0.329126354609053E-010
 0.501559637850429E-010
 0.528949636514145E-010
 0.443516360080013E-010
 0.116729833224840E-009
 0.152909776567524E-009
 0.139278023610616E-009
 0.137137194325621E-009
 0.117709247910737E-009
 0.229338069477810E-009
 0.328171043350303E-009
 0.216605977901810E-009
 0.173117841477583E-007
 0.266471106577316E-008
 0.246819213683209E-008
 0.276877884301417E-008
 0.272312794202918E-008
 0.706924170093221E-008
 0.104395304394675E-007
 0.905478216156977E-008
 0.165899518306795E-008
 0.496443808794427E-008
 0.756865496204239E-009
 0.174538872812599E-008
 0.171250580282352E-010
 0.134334109431788E-010
 0.204350082232519E-010
 0.164281196260793E-010
 0.718016092784067E-008
 0.498248020128206E-008
 0.131888721411676E-008
 0.293592360582872E-008
 0.805725990607703E-009
 0.428125022792232E-008
 0.180250292411322E-008
 0.178546348386126E-008
 0.517949898720990E-010
 0.743957756637399E-010
 0.754102133998801E-010
 0.653819741196678E-010
 0.221190989163751E-009
 0.129447541402832E-009
 0.268377919785617E-009
 0.206980124589954E-009
 0.913981052416611E-010
 0.105896463267304E-009
 0.118437867342622E-009
 0.101242665041976E-009
 0.472833730000362E-006
 0.142338858341169E-005
 0.228415300465971E-004
 0.837388966782219E-006
 0.181374167270030E-008
 0.425917970429094E-009
 0.137868486306252E-008
 0.151248620930792E-008
 0.502044798366919E-009
 0.117754819875155E-008
 0.390019726580538E-009
 0.521404477422296E-009
 0.760198310231638E-009
 0.796217408509097E-009
 0.282626131311750E-009
 0.677894007728302E-009
 0.669586057161423E-010
 0.737415107019925E-010
 0.510448091163616E-010
 0.633218385494846E-010
 0.272418199736448E-009
 0.824327582343595E-009
 0.454872247683878E-009
 0.428503011309882E-009
 0.258510871914205E-008
 0.149750056267512E-007
 0.170042404119690E-007
 0.149959775199721E-007
 0.157511521871693E-009
 0.257609697358639E-009
 0.127162096167638E-009
 0.161522449599550E-009
 0.115084542977820E-010
 0.102578672385804E-010
 0.792239002826289E-011
 0.940389661771111E-011
 0.856237632794059E-010
 0.116819941697540E-009
 0.952138757527416E-010
 0.973348456331149E-010
 0.202760920674230E-009
 0.287444324385866E-009
 0.172828044167716E-009
 0.206889495921447E-009
 0.934043115795647E-010
 0.106643324803923E-009
 0.104433155999858E-009
 0.102395198656300E-009
 0.111793204299154E-009
 0.142988085257563E-009
 0.113563375155744E-009
 0.118769591205137E-009
 0.953804647003160E-011
 0.128095974503463E-010
 0.118106577991643E-010
 0.109969867788213E-010
 0.121485154629908E-010
 0.908624070708585E-011
 0.112224057202646E-010
 0.988145299779981E-011
 0.632581544953183E-010
 0.204444636804484E-010
 0.144580397615079E-010
 0.222691794260698E-010
 0.486376623107166E-009
 0.367083697643944E-009
 0.101270665411033E-009
 0.242145954207964E-009
 0.140877836237072E-009
 0.101989081970859E-009
 0.675552646242872E-010
 0.996824969555265E-010
 0.248396725760267E-010
 0.407468665761434E-010
 0.215768582286050E-010
 0.274598349179320E-010
 0.125823245964107E+001
 0.545331470729992E+000
 0.113001139786601E+000
 0.896543244176065E+000
 0.506526578820926E-010
 0.779627272742446E-010
 0.620170443731908E-010
 0.588886702024257E-010
 0.126394544052557E-010
 0.185667670329763E-010
 0.150336597310249E-010
 0.153487371320789E-010
 0.393653456446213E-010
 0.251367234434299E-010
 0.214040124000550E-010
 0.273203336448285E-010
 0.124195924103386E-010
 0.926013573382124E-011
 0.115667598956443E-010
 0.106470269347468E-010
 0.376111529441034E-010
 0.144934188990519E-010
 0.151342536656542E-010
 0.182392733163045E-010
 0.122402949557658E+000
 0.215630617768960E-001
 0.262806624217440E+000
 0.405144325885903E-001
 0.572632464893977E-002
 0.891027833694580E-001
 0.572227505301934E-002
 0.378262398761914E-001
 0.180999962247982E-008
 0.807976388020503E-008
 0.590452457566562E-008
 0.710266239915449E-008
 0.230917806613073E-009
 0.134153719424801E-009
 0.207638867138644E-009
 0.191344540784857E-009
 0.108208767290114E-008
 0.409881876984787E-009
 0.201924805417761E-008
 0.126141390165021E-008
 0.467778547730812E-009
 0.161175867548437E-008
 0.266714627680560E-008
 0.145120694227388E-008
 0.118125847217260E-009
 0.134837343253440E-009
 0.963411938751813E-010
 0.118641076812056E-009
 0.385144195223213E-009
 0.337946424701993E-009
 0.854104455264923E-009
 0.408890474681107E-009
 0.139360619208798E-009
 0.128283658694835E-009
 0.215624026124819E-009
 0.147486856183853E-009
 0.150394237442026E-009
 0.233572511568554E-009
 0.170291245768759E-009
 0.176745110864109E-009
 0.103522234447424E-009
 0.713521563022182E-010
 0.922560395589984E-010
 0.896337404430912E-010
 0.742414861937578E-010
 0.101747967772572E-009
 0.864769462234630E-010
 0.828430730300359E-010
 0.472497434709641E-008
 0.110990759301396E-007
 0.117871757452237E-008
 0.286098218773279E-008
 0.437477698478259E-009
 0.805526569248396E-009
 0.384654067762769E-008
 0.674340435209924E-009
 0.460423376394343E-008
 0.644195214381463E-009
 0.132179381962259E-008
 0.135956412918118E-008
 0.156105739328292E-009
 0.242110840415137E-009
 0.250182919390822E-009
 0.224559630241276E-009
 0.875724901398330E-010
 0.724402831324092E-010
 0.159638919379046E-009
 0.958162614474767E-010
 0.133861865693854E+001
 0.876702239561964E+000
 0.912635801585420E-002
 0.160843544654916E+001
 0.280006231011825E-001
 0.594510446564503E-002
 0.187349500399755E+000
 0.516099891090038E-001
 0.816965451732127E-010
 0.110623397611773E-009
 0.840227398189221E-010
 0.898927357775383E-010
 0.177173830011926E-001
 0.265151194953291E-001
 0.925723007895055E-001
 0.120218616182320E+000
 0.421108656465471E-001
 0.877300845446163E-001
 0.485280768455856E-001
 0.324492006862824E-001
 0.276327590247843E-001
 0.638959814231399E+000
 0.316301571921914E+000
 0.439923298919269E+000
 0.124187346605393E+000
 0.312641471406953E+000
 0.426680230294670E+000
 0.515391573581036E+000
 0.196647953719830E-009
 0.427972560806993E-009
 0.257758938101913E-009
 0.263925194539430E-009
 0.688653435551973E-011
 0.786353422883286E-011
 0.759626298146941E-011
 0.732466688609436E-011
 0.956294677119451E-011
 0.690847485092514E-011
 0.769658172872597E-011
 0.744430081040611E-011
 0.990597715444948E-001
 0.983381005233660E-001
 0.213348383533825E-001
 0.100325914293991E+000
 0.194636513642501E-010
 0.133559033709066E-010
 0.169886053657851E-010
 0.160962251310767E-010
 0.135503909511904E-001
 0.278798174767574E+000
 0.151398890108262E-001
 0.179742986860206E-001
 0.448521207210646E-001
 0.301259887243257E-001
 0.201428557848826E+000
 0.185973188217518E-001
 0.773630314628443E-002
 0.607334071512178E-002
 0.936369803883950E-001
 0.328429957003111E-001
 0.521067885796611E-002
 0.882901516845471E-001
 0.535161133128700E-002
 0.355454178479778E-001
 0.152678868544156E-004
 0.284228369590991E-004
 0.309051632145331E-004
 0.330948789033652E-004
 0.291417687380908E-001
 0.181262456522478E-001
 0.846044627323962E+000
 0.964889753877792E-001
 0.812632115878524E+000
 0.280694104254260E+000
 0.174782325697631E-001
 0.669257757699545E+000
 0.766930957051779E-003
 0.250432216687790E-002
 0.135720104113285E+001
 0.192392913818993E-001
 0.241004769806575E-002
 0.639420221424042E-001
 0.258035765778571E+000
 0.251434106067503E-001
 0.265324046160609E-001
 0.679508401769385E-001
 0.663544089904886E+000
 0.514687541578538E-001
 0.292116017111561E-003
 0.572713845349651E-001
 0.535799686488899E-001
 0.188705281103864E-001
 0.112281730502594E-001
 0.146732416081170E+001
 0.900034477430141E+000
 0.155614994837767E+001
 0.192008546192766E+001
 0.119640455264724E-001
 0.229626486939509E+001
 0.231255630888776E+001
 0.326385606967409E+000
 0.355971122764054E-001
 0.245698525150449E+000
 0.303021026632544E+000
 0.529958098315222E-002
 0.188246737639605E+000
 0.608488868210704E-002
 0.373689337032224E-001
 0.156850617911170E-004
 0.428729806064513E-004
 0.279259353023585E+000
 0.155251431627263E-004
 0.307796606662170E-008
 0.269166340147034E-008
 0.263775340202828E-007
 0.310675887077964E-008
 0.130114135797252E-010
 0.117359444146977E-010
 0.149066874962780E-010
 0.132549972377118E-010
 0.805953236702663E-011
 0.123969571604588E-010
 0.105300380097979E-010
 0.985696189857992E-011
 0.122146236770501E-001
 0.288383482403075E-001
 0.771275619307005E-004
 0.137120203655761E-001
 0.582705296180813E+000
 0.227271902413409E+000
 0.208666473787166E+000
 0.263528056977963E+000
 0.523138059465161E-004
 0.892967735893590E+000
 0.309197998214188E-001
 0.100080236160674E+000
 0.561857918787976E+000
 0.142914170756502E+001
 0.366494012465316E+000
 0.721571828700367E+000
 0.225634550673897E-002
 0.729940453421719E-002
 0.318244850819887E-001
 0.103722719202503E-001
 0.136780817882174E+001
 0.655011059293163E-001
 0.158530461710948E-001
 0.249021226023270E+000
 0.337477993081124E+001
 0.457210610665335E-005
 0.339012012294200E+001
 0.463610706810362E+001
 0.174873576651860E-005
 0.176926024547956E-007
 0.119997106650794E-007
 0.149180196010070E-007
 0.228421958316422E+001
 0.293930577038212E-003
 0.142352507684349E-004
 0.188895511120339E-004
 0.216243578522660E-007
 0.122562094286095E-007
 0.269705142986444E-008
 0.137729108212376E-007
 0.139790370147406E-008
 0.121101161620814E-007
 0.207098724838929E-008
 0.210303203419963E-008
 0.283002508691205E-005
 0.817652545850779E-005
 0.297212931614410E-006
 0.601543336445921E-005
 0.488334462784065E-004
 0.185764583354687E+000
 0.890323475050287E-004
 0.185522073085541E-003
 0.990084494134673E-002
 0.834995175639969E-002
 0.975153452077585E+000
 0.129173423839582E+000
 0.255986801380085E-004
 0.205183511552562E-004
 0.156381828522924E-004
 0.208941657630097E-004
 0.264056311523164E+000
 0.518736745374961E-003
 0.180616211421864E-003
 0.185116350164324E-003
 0.231979467315391E-002
 0.188172206899766E+001
 0.953407354810318E-004
 0.109690525707969E-003
 0.935274850489525E-005
 0.407777928348469E+001
 0.325137975205729E+001
 0.436553032712695E+001
 0.443555617816709E-005
 0.332320965043436E-006
 0.324852804447657E-006
 0.265023735180308E-006
 0.139986824432791E-005
 0.467282848026830E-006
 0.199419163838871E-004
 0.733526564488190E-006
 0.826160646986828E-005
 0.289787798487265E-005
 0.291869646023247E-006
 0.572218564635835E-005
 0.111028204962632E-004
 0.127967062622980E-004
 0.446515440227599E+001
 0.578161923391022E-005
 0.323678966467303E-010
 0.261615956113417E-010
 0.516733746173667E-010
 0.339459892781016E-010
 0.200635150619536E-009
 0.332548349677729E-009
 0.443364472291989E-009
 0.313171786409190E-009
 0.117150072086160E-009
 0.175838525864928E-009
 0.160911000562926E-009
 0.150876631756471E-009
 0.164752074079482E-009
 0.113906552984489E-009
 0.121559431911291E-009
 0.127055237544433E-009
 0.432326407521216E-008
 0.349446126117584E-008
 0.701090552893611E-009
 0.373507905158132E-008
 0.674885004321593E-009
 0.470810424625851E-008
 0.101090580282201E-008
 0.104047725859764E-008
 0.148973745867106E-009
 0.184017981794190E-009
 0.127099739260361E-009
 0.151390991773554E-009
 0.136676690262054E-008
 0.867590369382125E-008
 0.128158121071299E-007
 0.839793505710356E-008
 0.416908726727701E-010
 0.375777817355963E-010
 0.652777248896261E-010
 0.457652086314170E-010
 0.233420852753107E+000
 0.818597597996827E-001
 0.177233843030350E+000
 0.181058991439377E+000
 0.128209939166576E-009
 0.234878133436825E-009
 0.156164246311178E-009
 0.161809112309669E-009
 0.908126506374664E-011
 0.156150404093102E-010
 0.159409840085405E-010
 0.124237303530030E-010
 0.859684630931041E-008
 0.745089270862918E-009
 0.325340008353095E-008
 0.140586217951847E-008
 0.985683311380073E-010
 0.120187441415479E-009
 0.828682736352189E-010
 0.100339614637539E-009
 0.249670905057049E-009
 0.253722770776430E-009
 0.135149495675228E-009
 0.223090200326112E-009
 0.659027740163850E-009
 0.373089308988312E-008
 0.596092434452156E-009
 0.656865467559698E-009
 0.594519929565892E-002
 0.533358732723425E-001
 0.712753075465153E-002
 0.331572898850430E-001
 0.372346742878103E+000
 0.247459373854942E+001
 0.833271357495072E+000
 0.112359539612316E+001
 0.227473145608638E-001
 0.288175403242461E+000
 0.396106946525097E+000
 0.375013756059833E+000
 0.495174688755224E-010
 0.740773773283460E-010
 0.673128106248608E-010
 0.598190714207851E-010
 0.214288201110588E-009
 0.115234395068430E-009
 0.102920354900020E-009
 0.127091852722616E-009
 0.226089194255534E-009
 0.100192837919707E-009
 0.965497456007768E-010
 0.120515813529187E-009
 0.530299867763557E-008
 0.796975517726766E-009
 0.523228239468706E-008
 0.415206685499732E-008
 0.535441056842736E-001
 0.148697973507674E-002
 0.214872366489275E-001
 0.101087148309502E-001
 0.725250320835134E+000
 0.459307933383789E-001
 0.368219053346114E+000
 0.702635506978669E+000
 0.227430497338069E+000
 0.525376218203877E+000
 0.385767329993901E+000
 0.564075238285440E+000
 0.693842846259391E-011
 0.901631856472203E-011
 0.759567969627760E-011
 0.744649944834600E-011
 0.145335707012469E-010
 0.227791103956745E-010
 0.703300181295970E-010
 0.230025997930580E-010
 0.133224234797179E-001
 0.150943959938988E-001
 0.177840563241540E-001
 0.174008959312520E-002
 0.197349690351524E-001
 0.792492065054782E-002
 0.125728485862709E-001
 0.362053076215774E-002
 0.162879011187931E+000
 0.422521583772839E-001
 0.584774438030485E-001
 0.969362494602561E-001
 0.933227258421438E-002
 0.833074250031544E-002
 0.441840687003700E-001
 0.657290290656141E-001
 0.149058231163594E-001
 0.450851153090400E-001
 0.633763905880442E+000
 0.127137873264514E+000
 0.320117903213409E-001
 0.203474344766667E+000
 0.655455542248477E-002
 0.624520998317677E-001
 0.144111702748522E+000
 0.838033412960019E-001
 0.417217143905159E-001
 0.642850339674136E-001
 0.111443137827680E-001
 0.990308628031643E-001
 0.272655062740783E+000
 0.207229807084978E-001
 0.833544549856761E-002
 0.558554281183839E+000
 0.658197392795591E+000
 0.111740530054694E+001
 0.106574044487085E+000
 0.102334841978388E-003
 0.207594375456616E+000
 0.121473628218880E+000
 0.435454268796695E-001
 0.218108704052392E+000
 0.233206757186144E-001
 0.913108267682795E-001
 0.854621874403187E-010
 0.187414773482757E-009
 0.458022969526829E-010
 0.942189925599359E-010
 0.170795454294485E-005
 0.929400591535731E-006
 0.197429082028712E-007
 0.160270385960688E-005
 0.282153698328644E-002
 0.181026803758305E-002
 0.244448549327556E-001
 0.976551250736492E-002
 0.156370927260250E-001
 0.387338413941732E-001
 0.177134638053165E-001
 0.359388332050801E-003
 0.107261853149875E-009
 0.940703595770628E-010
 0.107990359371761E-009
 0.103391738151890E-009
 0.117910359357296E-009
 0.110018632440720E-009
 0.917839499940357E-010
 0.103767938400799E-009
 0.278702917166097E-002
 0.771919027814612E-001