# vtk DataFile Version 3.0
Unstructured Grid
ASCII
DATASET UNSTRUCTURED_GRID
FIELD FieldData 1
TIME 1 1 float
  0.425625E+02
POINTS          640 double
 0.000000000000000E+000 0.000000000000000E+000 0.000000000000000E+000
 0.100000000000000E+001 0.000000000000000E+000 0.000000000000000E+000
 0.100000000000000E+001 0.100000000000000E+001 0.000000000000000E+000
 0.000000000000000E+000 0.100000000000000E+001 0.000000000000000E+000
 0.125000000000000E+000 0.250000000000000E+000 0.000000000000000E+000
 0.375000000000000E+000 0.250000000000000E+000 0.000000000000000E+000
 0.375000000000000E+000 0.750000000000000E+000 0.000000000000000E+000
 0.125000000000000E+000 0.750000000000000E+000 0.000000000000000E+000
 0.625000000000000E+000 0.250000000000000E+000 0.000000000000000E+000
 0.875000000000000E+000 0.250000000000000E+000 0.000000000000000E+000
 0.875000000000000E+000 0.750000000000000E+000 0.000000000000000E+000
 0.625000000000000E+000 0.750000000000000E+000 0.000000000000000E+000
 0.100000000000000E+001 0.500000000000000E+000 0.000000000000000E+000
 0.000000000000000E+000 0.500000000000000E+000 0.000000000000000E+000
 0.500000000000000E+000 0.000000000000000E+000 0.000000000000000E+000
 0.125000000000000E+000 0.500000000000000E+000 0.000000000000000E+000
 0.000000000000000E+000 0.750000000000000E+000 0.000000000000000E+000
 0.000000000000000E+000 0.250000000000000E+000 0.000000000000000E+000
 0.000000000000000E+000 0.875000000000000E+000 0.000000000000000E+000
 0.000000000000000E+000 0.125000000000000E+000 0.000000000000000E+000
 0.625000000000000E-001 0.812500000000000E+000 0.000000000000000E+000
 0.125000000000000E+000 0.375000000000000E+000 0.000000000000000E+000
 0.125000000000000E+000 0.625000000000000E+000 0.000000000000000E+000
 0.500000000000000E+000 0.100000000000000E+001 0.000000000000000E+000
 0.250000000000000E+000 0.100000000000000E+001 0.000000000000000E+000
 0.125000000000000E+000 0.100000000000000E+001 0.000000000000000E+000
 0.729166666666667E-001 0.885416666666667E+000 0.000000000000000E+000
 0.000000000000000E+000 0.625000000000000E+000 0.000000000000000E+000
 0.625000000000000E-001 0.562500000000000E+000 0.000000000000000E+000
 0.375000000000000E+000 0.500000000000000E+000 0.000000000000000E+000
 0.375000000000000E+000 0.100000000000000E+001 0.000000000000000E+000
 0.250000000000000E+000 0.000000000000000E+000 0.000000000000000E+000
 0.625000000000000E-001 0.187500000000000E+000 0.000000000000000E+000
 0.143518518518519E+000 0.775462962962963E-001 0.000000000000000E+000
 0.156250000000000E+000 0.156250000000000E+000 0.000000000000000E+000
 0.729166666666667E-001 0.114583333333333E+000 0.000000000000000E+000
 0.125000000000000E+000 0.000000000000000E+000 0.000000000000000E+000
 0.250000000000000E+000 0.250000000000000E+000 0.000000000000000E+000
 0.375000000000000E+000 0.000000000000000E+000 0.000000000000000E+000
 0.187500000000000E+000 0.218750000000000E+000 0.000000000000000E+000
 0.312500000000000E+000 0.762453007518797E-001 0.000000000000000E+000
 0.270259392278489E+000 0.159169301283415E+000 0.000000000000000E+000
 0.365310977506407E+000 0.155367112827996E+000 0.000000000000000E+000
 0.312500000000000E+000 0.216265619131990E+000 0.000000000000000E+000
 0.500000000000000E+000 0.189389379011873E+000 0.000000000000000E+000
 0.426456487258648E+000 0.196919158251449E+000 0.000000000000000E+000
 0.451620395371675E+000 0.941243892751461E-001 0.000000000000000E+000
 0.381804756165356E+000 0.871724813114945E-001 0.000000000000000E+000
 0.437500000000000E+000 0.273708879364394E-001 0.000000000000000E+000
 0.000000000000000E+000 0.375000000000000E+000 0.000000000000000E+000
 0.625000000000000E-001 0.312500000000000E+000 0.000000000000000E+000
 0.250000000000000E+000 0.750000000000000E+000 0.000000000000000E+000
 0.158482142857143E+000 0.851934523809524E+000 0.000000000000000E+000
 0.210861885404568E+000 0.921875000000000E+000 0.000000000000000E+000
 0.136017278952732E+000 0.925863358051789E+000 0.000000000000000E+000
 0.625000000000000E-001 0.687500000000000E+000 0.000000000000000E+000
 0.250000000000000E+000 0.437500000000000E+000 0.000000000000000E+000
 0.247528011619582E+000 0.839830719156545E+000 0.000000000000000E+000
 0.312500000000000E+000 0.796669265575374E+000 0.000000000000000E+000
 0.419664368355990E+000 0.875000000000000E+000 0.000000000000000E+000
 0.313183356674252E+000 0.918387829019328E+000 0.000000000000000E+000
 0.312500000000000E+000 0.100000000000000E+001 0.000000000000000E+000
 0.380617553087688E+000 0.931527612480385E+000 0.000000000000000E+000
 0.187500000000000E+000 0.785936956899548E+000 0.000000000000000E+000
 0.350379273974835E+000 0.857317802397078E+000 0.000000000000000E+000
 0.228046514569416E+000 0.817347524546315E-001 0.000000000000000E+000
 0.187500000000000E+000 0.312500000000000E+000 0.000000000000000E+000
 0.625000000000000E-001 0.437500000000000E+000 0.000000000000000E+000
 0.197916666666667E+000 0.385416666666667E+000 0.000000000000000E+000
 0.375000000000000E+000 0.375000000000000E+000 0.000000000000000E+000
 0.750000000000000E+000 0.000000000000000E+000 0.000000000000000E+000
 0.625000000000000E-001 0.959280303030303E+000 0.000000000000000E+000
 0.234375000000000E+000 0.562500000000000E+000 0.000000000000000E+000
 0.187500000000000E+000 0.687500000000000E+000 0.000000000000000E+000
 0.193892045454545E+000 0.618607954545455E+000 0.000000000000000E+000
 0.375000000000000E+000 0.625000000000000E+000 0.000000000000000E+000
 0.283775504647110E+000 0.640801989544002E+000 0.000000000000000E+000
 0.281298714846257E+000 0.504888901855782E+000 0.000000000000000E+000
 0.331282779604339E+000 0.562500000000000E+000 0.000000000000000E+000
 0.338845441361880E+000 0.687500000000000E+000 0.000000000000000E+000
 0.500000000000000E+000 0.775815254846569E+000 0.000000000000000E+000
 0.625000000000000E-001 0.407196969696970E-001 0.000000000000000E+000
 0.328125000000000E+000 0.437500000000000E+000 0.000000000000000E+000
 0.284143518518519E+000 0.340856481481482E+000 0.000000000000000E+000
 0.312500000000000E+000 0.278356481481482E+000 0.000000000000000E+000
 0.625000000000000E+000 0.500000000000000E+000 0.000000000000000E+000
 0.410581328448014E+000 0.312500000000000E+000 0.000000000000000E+000
 0.543730092976870E+000 0.258404709955172E+000 0.000000000000000E+000
 0.625000000000000E+000 0.375000000000000E+000 0.000000000000000E+000
 0.500000000000000E+000 0.404784409423024E+000 0.000000000000000E+000
 0.590394028376448E+000 0.312500000000000E+000 0.000000000000000E+000
 0.467392923590959E+000 0.261422480241605E+000 0.000000000000000E+000
 0.508234229043035E+000 0.327522431406248E+000 0.000000000000000E+000
 0.625000000000000E+000 0.000000000000000E+000 0.000000000000000E+000
 0.537311919648379E+000 0.110523699730938E+000 0.000000000000000E+000
 0.750000000000000E+000 0.250000000000000E+000 0.000000000000000E+000
 0.593146640296986E+000 0.172723366619635E+000 0.000000000000000E+000
 0.623771215502605E+000 0.890722450407200E-001 0.000000000000000E+000
 0.687500000000000E+000 0.454068088573020E-001 0.000000000000000E+000
 0.793069391389776E+000 0.125000000000000E+000 0.000000000000000E+000
 0.695513657869308E+000 0.162768437982326E+000 0.000000000000000E+000
 0.687500000000000E+000 0.250000000000000E+000 0.000000000000000E+000
 0.875000000000000E+000 0.500000000000000E+000 0.000000000000000E+000
 0.727921748554044E+000 0.101601148842529E+000 0.000000000000000E+000
 0.759582972952604E+000 0.183381972603444E+000 0.000000000000000E+000
 0.875000000000000E+000 0.375000000000000E+000 0.000000000000000E+000
 0.718750000000000E+000 0.343750000000000E+000 0.000000000000000E+000
 0.697916666666667E+000 0.437500000000000E+000 0.000000000000000E+000
 0.750000000000000E+000 0.572048611111111E+000 0.000000000000000E+000
 0.787123226950355E+000 0.408133865248227E+000 0.000000000000000E+000
 0.804687500000000E+000 0.320312500000000E+000 0.000000000000000E+000
 0.700214460784314E+000 0.513965482026144E+000 0.000000000000000E+000
 0.783021635712153E+000 0.493366127722916E+000 0.000000000000000E+000
 0.625000000000000E+000 0.625000000000000E+000 0.000000000000000E+000
 0.848380638879200E+000 0.437500000000000E+000 0.000000000000000E+000
 0.562500000000000E+000 0.404604515401992E-001 0.000000000000000E+000
 0.875000000000000E+000 0.625000000000000E+000 0.000000000000000E+000
 0.750000000000000E+000 0.750000000000000E+000 0.000000000000000E+000
 0.697046765904942E+000 0.621060933265583E+000 0.000000000000000E+000
 0.200520833333333E+000 0.494791666666667E+000 0.000000000000000E+000
 0.429642360217793E+000 0.800955091165693E+000 0.000000000000000E+000
 0.453073336954457E+000 0.687500000000000E+000 0.000000000000000E+000
 0.548183885155829E+000 0.693587592964698E+000 0.000000000000000E+000
 0.750000000000000E+000 0.100000000000000E+001 0.000000000000000E+000
 0.573843760532799E+000 0.437500000000000E+000 0.000000000000000E+000
 0.500000000000000E+000 0.550126792242997E+000 0.000000000000000E+000
 0.511972906944656E+000 0.477455600833011E+000 0.000000000000000E+000
 0.437507615834863E+000 0.452402202857321E+000 0.000000000000000E+000
 0.546458141439317E+000 0.614345103225503E+000 0.000000000000000E+000
 0.571440414895569E+000 0.547357897962524E+000 0.000000000000000E+000
 0.450991397292447E+000 0.610087136082382E+000 0.000000000000000E+000
 0.875000000000000E+000 0.000000000000000E+000 0.000000000000000E+000
 0.100000000000000E+001 0.250000000000000E+000 0.000000000000000E+000
 0.100000000000000E+001 0.375000000000000E+000 0.000000000000000E+000
 0.687500000000000E+000 0.700324699898860E+000 0.000000000000000E+000
 0.812500000000000E+000 0.687500000000000E+000 0.000000000000000E+000
 0.804621866531165E+000 0.617121866531165E+000 0.000000000000000E+000
 0.825181931429427E+000 0.549770415540467E+000 0.000000000000000E+000
 0.100000000000000E+001 0.625000000000000E+000 0.000000000000000E+000
 0.100000000000000E+001 0.750000000000000E+000 0.000000000000000E+000
[...]
CELL_DATA         1212
SCALARS tdens double 1
LOOKUP_TABLE default
 0.495772387484017E-007
 0.195102393909893E-007
 0.262934842397168E-007
 0.258291545312382E-007
 0.299339403767321E-006
 0.648787718495885E-006
 0.262956214747507E-006
 0.318824115563643E-006
 0.177363497876756E+000
 0.473377118749173E-001
 0.105927415135185E+000
 0.237592339605694E+000
 0.150198595318545E-007
 0.133046400404401E-007
 0.104774092946372E-007
 0.116059833803595E-007
 0.193334339139937E-007
 0.496971553311967E-007
 0.263107699078135E-007
 0.257960258945392E-007
 0.247411528678658E-007
 0.409933707983848E-007
 0.401000685225788E-007
 0.332612663665749E-007
 0.831010640241262E-007
 0.513160115167814E-007
 0.576554078508132E-007
 0.624940467882046E-007
 0.485900019463491E-005
 0.174228509097068E-005
 0.620700023804328E-006
 0.169773377383458E-005
 0.241193044002566E-001
 0.401045712938627E+000
 0.476033545143801E-002
 0.105258458190386E+000
 0.910506278021794E-008
 0.809105637369900E-008
 0.881194063887544E-008
 0.851567562579592E-008
 0.718783540594853E-006
 0.333049093956361E-006
 0.587068956355649E-006
 0.569370832319690E-006
 0.346642381226938E-007
 0.427296755111020E-007
 0.502820354052036E-007
 0.417786308130199E-007
 0.283654791364969E-006
 0.330800916263053E-006
 0.577217457355610E-007
 0.161001546803339E-006
 0.411283959492325E+000
 0.103979619706920E+000
 0.180351805277400E-001
 0.204299730370863E+000
 0.131484692188398E-006
 0.124521677914627E-006
 0.144801691711274E-006
 0.132276566941907E-006
 0.212497207000263E-001
 0.526280109090362E-001
 0.175279341262680E+001
 0.187363636441752E+000
 0.126414848053709E-007
 0.949214449351801E-008
 0.961681024375988E-008
 0.101004646045439E-007
 0.137080791792449E-007
 0.151590877616600E-007
 0.173237138095263E-007
 0.154431815491959E-007
 0.158936142384837E-007
 0.204090567813030E-007
 0.967679299873730E-008
 0.124112086642461E-007
 0.422126205967000E-001
 0.920625426618490E-001
 0.399848098298634E-002
 0.954665830684788E-001
 0.589755463756092E-006
 0.125152710954708E-006
 0.466183877568633E-006
 0.299626579401872E-006
 0.105312153660529E-007
 0.897309738584228E-008
 0.814482521049406E-008
 0.868980852770058E-008
 0.264653063829199E-001
 0.132581528490893E+000
 0.619820765628591E-002
 0.451688552907200E-001
 0.212142548901281E-007
 0.179750990536529E-007
 0.184444811841050E-007
 0.194746888420031E-007
 0.124696968544931E-007
 0.956113886346012E-008
 0.977394691580445E-008
 0.101841578091344E-007
 0.693100759240918E-007
 0.853892391893459E-007
 0.153106588919845E-006
 0.915911434485773E-007
 0.199355254518166E-007
 0.171855030160809E-007
 0.222665610457185E-007
 0.192975911814541E-007
 0.273409275819395E-001
 0.172730513860975E-001
 0.262877639586080E+000
 0.101775956419739E-001
 0.770917903702795E-007
 0.176655856064478E-007
 0.231053907007113E-007
 0.277526561871712E-007
 0.480081129687773E-006
 0.319710754650504E-005
 0.934260951172507E-006
 0.748219182509572E-006
 0.465795608581815E-007
 0.249510640720127E-007
 0.306611797777820E-007
 0.324452898249616E-007
 0.423983424480270E-007
 0.175683854736681E-007
 0.172256669998386E-007
 0.212916452259584E-007
 0.650521649368143E-002
 0.497247773618953E-001
 0.556962157048950E-002
 0.285071035959554E-001
 0.216741477156932E-006
 0.113232695452042E-006
 0.309097040156811E-006
 0.212677973482451E-006
 0.389018852984146E-006
 0.977300645866956E-006
 0.363348161548645E-006
 0.429797138356136E-006
 0.215469133645926E-007
 0.271216904120921E-007
 0.374425741545441E-007
 0.283543185389537E-007
 0.145536282000044E-007
 0.946824911487514E-008
 0.123265929676295E-007
 0.115503136291553E-007
 0.705444079949701E-007
 0.363010893409299E-007
 0.129768092241811E-006
 0.628618452419718E-007
 0.339301504437776E-007
 0.539444361232266E-007
 0.491105536685433E-007
 0.445739145414811E-007
 0.912857321345879E-008
 0.811644818720296E-008
 0.887327671908427E-008
 0.858169112694871E-008
 0.127483442830945E-007
 0.964836532105694E-008
 0.954221176215791E-008
 0.101526919080568E-007
 0.169102706353752E-007
 0.154536790911009E-007
 0.965551894308467E-008
 0.121788478944838E-007
 0.623131851411502E+000
 0.235168627276851E+000
 0.302574492622588E-001
 0.495398330683051E+000
 0.684979381831854E-002
 0.105505413538055E-001
 0.274150353271383E+001
 0.747649354055006E-002
 0.277166749973133E+000
 0.751275818376848E-001
 0.250817812443609E+000
 0.494602029078291E-001
 0.145259820855277E-006
 0.168491138199758E-006
 0.201768713597565E-006
 0.169229659331925E-006
 0.129350288999711E-006
 0.360207942872175E-007
 0.729764326923296E-007
 0.637379790374967E-007
 0.284651954696138E-007
 0.247668931360384E-007
 0.474652058253085E-007
 0.315218626948464E-007
 0.186133062442286E-007
 0.179688104881526E-007
 0.212447324523675E-007
 0.195318325637710E-007
 0.108889104337246E-006
 0.170594852216318E-006
 0.838283037833188E-007
 0.111272678990950E-006
 0.222041423010043E-007
 0.171405303368400E-007
 0.198384714077709E-007
 0.192369767062142E-007
 0.513108229184311E-007
 0.792046955795792E-007
 0.619347699280891E-007
 0.637771368193693E-007
 0.147238025995938E-007
 0.173494332895981E-007
 0.222306812363539E-007
 0.180527876809401E-007
 0.119077117028990E-007
 0.133591485375185E-007
 0.927443971067839E-008
 0.109514553973005E-007
 0.223261840371424E-007
 0.358214268765846E-007
 0.277730517725197E-007
 0.279388758900486E-007
 0.373222460659747E-007
 0.562300343195748E-007
 0.594115208762203E-007
 0.498783353910448E-007
 0.125427289551504E-006
 0.161839465353237E-006
 0.148626975623588E-006
 0.146073526075177E-006
 0.130187672051637E-006
 0.249115616330890E-006
 0.357188309812130E-006
 0.236172218805923E-006
 0.126039242086285E-004
 0.234387739483406E-005
 0.214518619740174E-005
 0.239731409508324E-005
 0.277945887267906E-005
 0.758170768724485E-005
 0.945640365252623E-005
 0.837521553457106E-005
 0.155643638129703E-005
 0.446975126232753E-005
 0.765168467868100E-006
 0.166600159194321E-005
 0.197329495945429E-007
 0.155569743295610E-007
 0.234396490767603E-007
 0.189288456873635E-007
 0.678919922026126E-005
 0.466979914700236E-005
 0.140434885447318E-005
 0.297343580930094E-005
 0.822479096531845E-006
 0.424149988975836E-005
 0.185561154126490E-005
 0.183429190662832E-005
 0.579327381330245E-007
 0.819963248330440E-007
 0.830865060119511E-007
 0.724808122628120E-007
 0.237847344315289E-006
 0.140274686287095E-006
 0.284292285734529E-006
 0.221520603668914E-006
 0.996275036492500E-007
 0.114417299051259E-006
 0.127476305181110E-006
 0.109748838798041E-006
 0.229626878684649E-003
 0.590226044290407E-003
 0.525785136589878E-002
 0.325526771981511E-003
 0.193110740811968E-005
 0.455470693914966E-006
 0.142356288566555E-005
 0.156142853252045E-005
 0.523362923247878E-006
 0.121782390756520E-005
 0.414935683519624E-006
 0.549701071011209E-006
 0.722398513621332E-006
 0.762740111722294E-006
 0.287909511202316E-006
 0.652489820795119E-006
 0.740176809292784E-007
 0.812137644972368E-007
 0.570314839936636E-007
 0.701803486793050E-007
 0.278992082000309E-006
 0.794843485170845E-006
 0.461119629194217E-006
 0.431718263432625E-006
 0.222796350738599E-005
 0.108827305395627E-004
 0.121780512781339E-004
 0.109467323481366E-004
 0.167922341508302E-006
 0.270779964496634E-006
 0.137376005218742E-006
 0.172592515683258E-006
 0.134071286015589E-007
 0.119627583800327E-007
 0.929247442314902E-008
 0.109884986621393E-007
 0.937388895819051E-007
 0.126044704024616E-006
 0.103879047772664E-006
 0.105922360324839E-006
 0.211459435387846E-006
 0.298805876724346E-006
 0.182907150682884E-006
 0.216909844164017E-006
 0.101659055270039E-006
 0.115087896004103E-006
 0.112886953314203E-006
 0.110822428294928E-006
 0.120272980942280E-006
 0.151621452832020E-006
 0.122137373324140E-006
 0.127374883472757E-006
 0.111688177329026E-007
 0.149359911336993E-007
 0.138023935515478E-007
 0.128560539783452E-007
 0.141654459121655E-007
 0.106465537762046E-007
 0.131469610554554E-007
 0.115761807596234E-007
 0.712388749568574E-007
 0.230889087332794E-007
 0.169247667582196E-007
 0.257226031629390E-007
 0.516744590278805E-006
 0.406938774005135E-006
 0.113078579780783E-006
 0.267367743465022E-006
 0.152518408688793E-006
 0.110313756192910E-006
 0.745949663591912E-007
 0.108423411511464E-006
 0.285530534523023E-007
 0.462076463366056E-007
 0.248162197806039E-007
 0.314531069974175E-007
 0.998661006486706E+000
 0.442038868929990E+000
 0.108743433233897E+000
 0.744090847113620E+000
 0.563176908877612E-007
 0.848541368288993E-007
 0.682864167785270E-007
 0.650175572398267E-007
 0.146598099359176E-007
 0.213300605717207E-007
 0.173703541298619E-007
 0.177297875921261E-007
 0.445550656563531E-007
 0.286917480188456E-007
 0.245763861681315E-007
 0.311926921880570E-007
 0.146016794523974E-007
 0.108970671653038E-007
 0.135838489004920E-007
 0.125277455444137E-007
 0.429493045727507E-007
 0.169753963370002E-007
 0.176612928750854E-007
 0.212653319124496E-007
 0.172661758846917E+000
 0.396475200112907E-001
 0.198794163786181E+000
 0.949790438511549E-001
 0.556801420705616E-002
 0.684303312884933E-001
 0.648041563867919E-002
 0.381462198789173E-001
 0.185721640833483E-005
 0.714456817562910E-005
 0.610504472755614E-005
 0.662958769012295E-005
 0.241954782469550E-006
 0.143247272509852E-006
 0.221397453760047E-006
 0.202378812000737E-006
 0.111091977557601E-005
 0.434783931545975E-006
 0.206962959398810E-005
 0.128565009380432E-005
 0.440574592868858E-006
 0.134663922152684E-005
 0.212010806984316E-005
 0.122482285365017E-005
 0.124745510281117E-006
 0.140693160810279E-006
 0.103132003183428E-006
 0.125187910006951E-006
 0.397117719441681E-006
 0.356509284158255E-006
 0.872763649299702E-006
 0.427228754277108E-006
 0.146427571866414E-006
 0.136242452899725E-006
 0.223526570844931E-006
 0.155387315866702E-006
 0.156327228400295E-006
 0.235038008593989E-006
 0.174587577437371E-006
 0.181279320812382E-006
 0.110636840539749E-006
 0.779632281841198E-007
 0.995444902441688E-007
 0.966564949846380E-007
 0.809327002051270E-007
 0.108700458954386E-006
 0.933507895326028E-007
 0.896616393879284E-007
 0.455951650856616E-005
 0.999121134490537E-005
 0.129180287921386E-005
 0.297252758361459E-005
 0.466070358042598E-006
 0.872811097329895E-006
 0.372669281014576E-005
 0.725949093900901E-006
 0.428163380510289E-005
 0.646137924366904E-006
 0.134034879116274E-005
 0.136668300346419E-005
 0.162726807076136E-006
 0.248514779698469E-006
 0.252457654803467E-006
 0.229136131567910E-006
 0.970497856809501E-007
 0.803458852156265E-007
 0.173951259161451E-006
 0.105911319817313E-006
 0.120742703895495E+001
 0.783053348098791E+000
 0.972030011060693E-002
 0.145446041516257E+001
 0.279908556302685E-001
 0.621110060542985E-002
 0.174879908266365E+000
 0.522535394322025E-001
 0.895708372159998E-007
 0.119537999678473E-006
 0.919600686955954E-007
 0.981238013138216E-007
 0.145793516633466E-001
 0.112896136228245E+000
 0.344691829122849E+000
 0.216184849231853E+000
 0.426509968646894E-001
 0.103140680176701E+000
 0.723184678703248E-001
 0.431768040756490E-001
 0.316234657896550E-001
 0.547991252514868E+000
 0.250492903356218E+000
 0.391371604275175E+000
 0.235029179818430E+000
 0.229289198244530E+000
 0.347439398579107E+000
 0.314789047366609E+000
 0.206486828887630E-006
 0.431451056496542E-006
 0.264605185048837E-006
 0.271961904719487E-006
 0.810573961480385E-008
 0.923088278303425E-008
 0.891633596706110E-008
 0.861030526032445E-008
 0.109821574920498E-007
 0.812565237621499E-008
 0.901218411553557E-008
 0.872003505545938E-008
 0.139247430491479E+000
 0.198663961184565E+000
 0.178938920186238E-001
 0.183557369770659E+000
 0.223648151827092E-007
 0.154816369094704E-007
 0.196089073397375E-007
 0.185732891827336E-007
 0.540757259790088E-001
 0.184296097029221E+000
 0.961876983230498E-001
 0.220094268493654E+000
 0.427449031997037E-001
 0.736757241577421E-001
 0.138169659988025E+000
 0.381996505859089E-001
 0.664184779439763E-002
 0.586807041313047E-002
 0.569415465183317E-001
 0.302916801961060E-001
 0.573959091114170E-002
 0.708818186609485E-001
 0.538903504690974E-002
 0.357997117477543E-001
 0.357852484252314E-002
 0.488274078631544E-002
 0.491986439380440E-002
 0.513860953167276E-002
 0.405459234097353E-001
 0.195893307204276E-001
 0.746208018166463E+000
 0.799322249052462E-001
 0.777818344996288E+000
 0.299162361228971E+000
 0.133501523732387E-001
 0.687182666742208E+000
 0.148741691260473E-001
 0.371596150720222E-001
 0.130082263877298E+001
 0.207084652768041E-001
 0.410667134671058E-001
 0.692785468717904E-001
 0.301865198347780E+000
 0.255889319140757E-001
 0.740175283404095E-001
 0.793059204399541E-001
 0.447848503017878E+000
 0.918948640950187E-001
 0.117181946590479E-001
 0.694066964126627E-001
 0.637652343072074E-001
 0.580677087789325E-001
 0.172128430043738E-001
 0.129663599499594E+001
 0.774636691851478E+000
 0.132601188647488E+001
 0.174004720912752E+001
 0.464575063746434E-001
 0.223925853090709E+001
 0.201858416350048E+001
 0.251260173142699E+000
 0.185427740348541E-001
 0.202290064309188E+000
 0.327554795726745E+000
 0.570455465258703E-002
 0.179914351419472E+000
 0.715142445976934E-002
 0.379244071067183E-001
 0.333271921805108E-002
 0.666311952869704E-002
 0.471763072384507E+000
 0.300447783105190E-002
 0.310211950008381E-005
 0.231875993809046E-005
 0.192265905762405E-004
 0.294113010579980E-005
 0.151006457722742E-007
 0.136324180060036E-007
 0.172345175252322E-007
 0.153689214448323E-007
 0.944655251762317E-008
 0.143882510180253E-007
 0.122632788010012E-007
 0.114977337896138E-007
 0.981746437148822E-002
 0.808961833799012E-001
 0.662187401108579E-002
 0.147122128111793E-001
 0.511687437994069E+000
 0.310580675163405E+000
 0.299357649080147E+000
 0.330793037125876E+000
 0.611868226393818E-002
 0.827244166214854E+000
 0.265079900924051E-001
 0.754349147110202E-001
 0.563321457820179E+000
 0.120092967312297E+001
 0.392103680829484E+000
 0.749889475555372E+000
 0.218771552809267E-002
 0.443551942450694E-002
 0.363647313379640E-001
 0.124075945091500E-001
 0.122543403088244E+001
 0.719368673231289E-001
 0.121009410617405E-001
 0.221508617098454E+000
 0.271191904840405E+001
 0.201223413061093E-002
 0.351630027193525E+001
 0.450011078802177E+001
 0.488857904741097E-003
 0.115669381566977E-004
 0.816852024654243E-005
 0.992824516678550E-005
 0.205361664783610E+001
 0.151248750880475E-001
 0.439658173804031E-002
 0.347942693291108E-002
 0.155990399237674E-004
 0.961046464248337E-005
 0.239118878727769E-005
 0.106788010968483E-004
 0.129943798583576E-005
 0.919007915081777E-005
 0.182541954424573E-005
 0.185906929049507E-005
 0.110566937193552E-002
 0.236219167201582E-002
 0.153555282803200E-003
 0.201983295726291E-002
 0.711522708159054E-002
 0.628736350716100E+000
 0.245426287131935E-001
 0.512773522857552E-001
 0.122827780134891E-001
 0.118737718203733E-001
 0.901405571133030E+000
 0.890275249984162E-001
 0.525182982911691E-002
 0.429800859046733E-002
 0.644397992381990E-002
 0.552835886217436E-002
 0.677981074403516E+000
 0.181395870398954E-001
 0.138554408014378E-001
 0.112231968019494E-001
 0.267100298568973E-001
 0.165336235913583E+001
 0.131661784264705E-001
 0.816096054455155E-002
 0.457862060430364E-002
 0.343542881908492E+001
 0.356288435154666E+001
 0.401506465671440E+001
 0.163157951829155E-002
 0.165876787158497E-003
 0.162302619472155E-003
 0.134581630917686E-003
 0.586669955055992E-003
 0.224885777716730E-003
 0.506332996188032E-002
 0.294081982150184E-003
 0.234703452431512E-002
 0.116909434387565E-002
 0.149279925195639E-003
 0.200164763603241E-002
 0.444709962567914E-002
 0.545156722292857E-002
 0.441258143734811E+001
 0.291944737488524E-002
 0.365692579581024E-007
 0.297267750425422E-007
 0.576291422293117E-007
 0.383441495817730E-007
 0.211935204497879E-006
 0.350710689015833E-006
 0.452593779402818E-006
 0.326920417505237E-006
 0.125663520831104E-006
 0.184020577045888E-006
 0.169306381512323E-006
 0.159342224933236E-006
 0.173133763699431E-006
 0.122384721118892E-006
 0.130162398017790E-006
 0.135662816173113E-006
 0.413996056235655E-005
 0.342785071017173E-005
 0.737290244241772E-006
 0.366875319405951E-005
 0.702540763837746E-006
 0.443767373826001E-005
 0.998253509767484E-006
 0.105811289825353E-005
 0.158254831521834E-006
 0.192455567213541E-006
 0.135834996817890E-006
 0.160294159970777E-006
 0.128563081840396E-005
 0.705367855563707E-005
 0.980962079345437E-005
 0.692380886556619E-005
 0.468431801442323E-007
 0.422967520669506E-007
 0.722251863170677E-007
 0.512878773948241E-007
 0.323861222502701E+000
 0.121365809050800E+000
 0.165407207380962E+000
 0.246271488077242E+000
 0.139041789998427E-006
 0.250838576619634E-006
 0.167029703651228E-006
 0.174151440338281E-006
 0.106074336573855E-007
 0.180170127391583E-007
 0.183688623860472E-007
 0.143885670094530E-007
 0.727888781843264E-005
 0.767509802534662E-006
 0.317528589833684E-005
 0.148320602192997E-005
 0.107651450389547E-006
 0.129803169497889E-006
 0.908901043789121E-007
 0.109247807064695E-006
 0.268168194745649E-006
 0.272428980007693E-006
 0.146942889639786E-006
 0.239459112545787E-006
 0.690085813547104E-006
 0.371102182471563E-005
 0.626696812786033E-006
 0.700823317935994E-006
 0.615191209826642E-002
 0.523036610857578E-001
 0.710532080152912E-002
 0.333963530127303E-001
 0.352259881057246E+000
 0.183629352042377E+001
 0.827010713971082E+000
 0.103574314440193E+001
 0.249168121382230E-001
 0.252463799864088E+000
 0.341589708926260E+000
 0.348407747666783E+000
 0.553656784080003E-007
 0.817508284096615E-007
 0.744263485035564E-007
 0.663692761769413E-007
 0.230075882257535E-006
 0.125620418871604E-006
 0.112713041089653E-006
 0.138543802182822E-006
 0.242502627286764E-006
 0.109902103333261E-006
 0.106407631509772E-006
 0.132114588846319E-006
 0.461030864310291E-005
 0.826064741325877E-006
 0.480951638061072E-005
 0.403213044943192E-005
 0.134228755535779E-001
 0.770635771669703E-002
 0.759970809022242E-001
 0.164627920638948E-001
 0.742255784382789E+000
 0.403753091687166E-001
 0.371783161583631E+000
 0.675206127457442E+000
 0.279563183781706E+000
 0.576485455417035E+000
 0.323063647204300E+000
 0.400956733738719E+000
 0.813202829872510E-008
 0.102745966318306E-007
 0.889268820304095E-008
 0.869313033831228E-008
 0.170011516432321E-007
 0.257043286657091E-007
 0.782050954330576E-007
 0.264302005143248E-007
 0.116952262145385E-001
 0.458450155734541E-001
 0.981758723906856E-002
 0.136323881335664E-001
 0.132054649625199E-001
 0.140556525404387E-001
 0.434547532554157E-001
 0.130102700326952E-001
 0.144222862701531E+000
 0.560556011639512E-001
 0.505472924068195E-001
 0.791096732777222E-001
 0.869803348483893E-002
 0.149426035636497E-001
 0.588058816540917E-001
 0.680890779531835E-001
 0.240570916490784E-001
 0.391126963645293E-001
 0.589457103898827E+000
 0.927531242572494E-001
 0.318060429715703E-001
 0.194707974094343E+000
 0.671526465239462E-002
 0.618915504714626E-001
 0.141796990083104E+000
 0.104371819151957E+000
 0.415456619289738E-001
 0.594696005689058E-001
 0.180799841834723E-001
 0.117406936102321E+000
 0.209833417365382E+000
 0.752776329397648E-001
 0.220555039074455E-001
 0.522972108680068E+000
 0.666464728698562E+000
 0.102785247106204E+001
 0.934271979192561E-001
 0.881700603639193E-002
 0.179106533871406E+000
 0.117469463343027E+000
 0.391233292542500E-001
 0.203531035673740E+000
 0.377757915714262E-001
 0.797383855370674E-001
 0.961340328010640E-007
 0.209420516781421E-006
 0.520946864687130E-007
 0.105910426188396E-006
 0.442314115434710E-003
 0.301286410608058E-003
 0.127281656323112E-004
 0.472086129904554E-003
 0.306104141957010E-002
 0.207951334344882E-002
 0.214124419979247E-001
 0.973412808666337E-002
 0.122929724469110E-001
 0.361671555312818E-001
 0.115817387369887E-001
 0.137247470373423E-001
 0.115685708894615E-006
 0.102280574707010E-006
 0.116450838612623E-006
 0.111791958119598E-006
 0.126899562596539E-006
 0.118565423082362E-006
 0.999599072296928E-007
 0.112262780881467E-006
 0.114309574158814E-001
 0.481670353981753E-001