# vtk DataFile Version 3.0
Unstructured Grid
ASCII
DATASET UNSTRUCTURED_GRID
FIELD FieldData 1
TIME 1 1 float
  0.448125E+02
POINTS          640 double
 0.000000000000000E+000 0.000000000000000E+000 0.000000000000000E+000
 0.100000000000000E+001 0.000000000000000E+000 0.000000000000000E+000
 0.100000000000000E+001 0.100000000000000E+001 0.000000000000000E+000
 0.000000000000000E+000 0.100000000000000E+001 0.000000000000000E+000
 0.125000000000000E+000 0.250000000000000E+000 0.000000000000000E+000
 0.375000000000000E+000 0.250000000000000E+000 0.000000000000000E+000
 0.375000000000000E+000 0.750000000000000E+000 0.000000000000000E+000
 0.125000000000000E+000 0.750000000000000E+000 0.000000000000000E+000
 0.625000000000000E+000 0.250000000000000E+000 0.000000000000000E+000
 0.875000000000000E+000 0.250000000000000E+000 0.000000000000000E+000
 0.875000000000000E+000 0.750000000000000E+000 0.000000000000000E+000
 0.625000000000000E+000 0.750000000000000E+000 0.000000000000000E+000
 0.100000000000000E+001 0.500000000000000E+000 0.000000000000000E+000
 0.000000000000000E+000 0.500000000000000E+000 0.000000000000000E+000
 0.500000000000000E+000 0.000000000000000E+000 0.000000000000000E+000
 0.125000000000000E+000 0.500000000000000E+000 0.000000000000000E+000
 0.000000000000000E+000 0.750000000000000E+000 0.000000000000000E+000
 0.000000000000000E+000 0.250000000000000E+000 0.000000000000000E+000
 0.000000000000000E+000 0.875000000000000E+000 0.000000000000000E+000
 0.000000000000000E+000 0.125000000000000E+000 0.000000000000000E+000
 0.625000000000000E-001 0.812500000000000E+000 0.000000000000000E+000
 0.125000000000000E+000 0.375000000000000E+000 0.000000000000000E+000
 0.125000000000000E+000 0.625000000000000E+000 0.000000000000000E+000
 0.500000000000000E+000 0.100000000000000E+001 0.000000000000000E+000
 0.250000000000000E+000 0.100000000000000E+001 0.000000000000000E+000
 0.125000000000000E+000 0.100000000000000E+001 0.000000000000000E+000
 0.729166666666667E-001 0.885416666666667E+000 0.000000000000000E+000
 0.000000000000000E+000 0.625000000000000E+000 0.000000000000000E+000
 0.625000000000000E-001 0.562500000000000E+000 0.000000000000000E+000
 0.375000000000000E+000 0.500000000000000E+000 0.000000000000000E+000
 0.375000000000000E+000 0.100000000000000E+001 0.000000000000000E+000
 0.250000000000000E+000 0.000000000000000E+000 0.000000000000000E+000
 0.625000000000000E-001 0.187500000000000E+000 0.000000000000000E+000
 0.143518518518519E+000 0.775462962962963E-001 0.000000000000000E+000
 0.156250000000000E+000 0.156250000000000E+000 0.000000000000000E+000
 0.729166666666667E-001 0.114583333333333E+000 0.000000000000000E+000
 0.125000000000000E+000 0.000000000000000E+000 0.000000000000000E+000
 0.250000000000000E+000 0.250000000000000E+000 0.000000000000000E+000
 0.375000000000000E+000 0.000000000000000E+000 0.000000000000000E+000
 0.187500000000000E+000 0.218750000000000E+000 0.000000000000000E+000
 0.312500000000000E+000 0.762453007518797E-001 0.000000000000000E+000
 0.270259392278489E+000 0.159169301283415E+000 0.000000000000000E+000
 0.365310977506407E+000 0.155367112827996E+000 0.000000000000000E+000
 0.312500000000000E+000 0.216265619131990E+000 0.000000000000000E+000
 0.500000000000000E+000 0.189389379011873E+000 0.000000000000000E+000
 0.426456487258648E+000 0.196919158251449E+000 0.000000000000000E+000
 0.451620395371675E+000 0.941243892751461E-001 0.000000000000000E+000
 0.381804756165356E+000 0.871724813114945E-001 0.000000000000000E+000
 0.437500000000000E+000 0.273708879364394E-001 0.000000000000000E+000
 0.000000000000000E+000 0.375000000000000E+000 0.000000000000000E+000
 0.625000000000000E-001 0.312500000000000E+000 0.000000000000000E+000
 0.250000000000000E+000 0.750000000000000E+000 0.000000000000000E+000
 0.158482142857143E+000 0.851934523809524E+000 0.000000000000000E+000
 0.210861885404568E+000 0.921875000000000E+000 0.000000000000000E+000
 0.136017278952732E+000 0.925863358051789E+000 0.000000000000000E+000
 0.625000000000000E-001 0.687500000000000E+000 0.000000000000000E+000
 0.250000000000000E+000 0.437500000000000E+000 0.000000000000000E+000
 0.247528011619582E+000 0.839830719156545E+000 0.000000000000000E+000
 0.312500000000000E+000 0.796669265575374E+000 0.000000000000000E+000
 0.419664368355990E+000 0.875000000000000E+000 0.000000000000000E+000
 0.313183356674252E+000 0.918387829019328E+000 0.000000000000000E+000
 0.312500000000000E+000 0.100000000000000E+001 0.000000000000000E+000
 0.380617553087688E+000 0.931527612480385E+000 0.000000000000000E+000
 0.187500000000000E+000 0.785936956899548E+000 0.000000000000000E+000
 0.350379273974835E+000 0.857317802397078E+000 0.000000000000000E+000
 0.228046514569416E+000 0.817347524546315E-001 0.000000000000000E+000
 0.187500000000000E+000 0.312500000000000E+000 0.000000000000000E+000
 0.625000000000000E-001 0.437500000000000E+000 0.000000000000000E+000
 0.197916666666667E+000 0.385416666666667E+000 0.000000000000000E+000
 0.375000000000000E+000 0.375000000000000E+000 0.000000000000000E+000
 0.750000000000000E+000 0.000000000000000E+000 0.000000000000000E+000
 0.625000000000000E-001 0.959280303030303E+000 0.000000000000000E+000
 0.234375000000000E+000 0.562500000000000E+000 0.000000000000000E+000
 0.187500000000000E+000 0.687500000000000E+000 0.000000000000000E+000
 0.193892045454545E+000 0.618607954545455E+000 0.000000000000000E+000
 0.375000000000000E+000 0.625000000000000E+000 0.000000000000000E+000
 0.283775504647110E+000 0.640801989544002E+000 0.000000000000000E+000
 0.281298714846257E+000 0.504888901855782E+000 0.000000000000000E+000
 0.331282779604339E+000 0.562500000000000E+000 0.000000000000000E+000
 0.338845441361880E+000 0.687500000000000E+000 0.000000000000000E+000
 0.500000000000000E+000 0.775815254846569E+000 0.000000000000000E+000
 0.625000000000000E-001 0.407196969696970E-001 0.000000000000000E+000
 0.328125000000000E+000 0.437500000000000E+000 0.000000000000000E+000
 0.284143518518519E+000 0.340856481481482E+000 0.000000000000000E+000
 0.312500000000000E+000 0.278356481481482E+000 0.000000000000000E+000
 0.625000000000000E+000 0.500000000000000E+000 0.000000000000000E+000
 0.410581328448014E+000 0.312500000000000E+000 0.000000000000000E+000
 0.543730092976870E+000 0.258404709955172E+000 0.000000000000000E+000
 0.625000000000000E+000 0.375000000000000E+000 0.000000000000000E+000
 0.500000000000000E+000 0.404784409423024E+000 0.000000000000000E+000
 0.590394028376448E+000 0.312500000000000E+000 0.000000000000000E+000
 0.467392923590959E+000 0.261422480241605E+000 0.000000000000000E+000
 0.508234229043035E+000 0.327522431406248E+000 0.000000000000000E+000
 0.625000000000000E+000 0.000000000000000E+000 0.000000000000000E+000
 0.537311919648379E+000 0.110523699730938E+000 0.000000000000000E+000
 0.750000000000000E+000 0.250000000000000E+000 0.000000000000000E+000
 0.593146640296986E+000 0.172723366619635E+000 0.000000000000000E+000
 0.623771215502605E+000 0.890722450407200E-001 0.000000000000000E+000
 0.687500000000000E+000 0.454068088573020E-001 0.000000000000000E+000
 0.793069391389776E+000 0.125000000000000E+000 0.000000000000000E+000
 0.695513657869308E+000 0.162768437982326E+000 0.000000000000000E+000
 0.687500000000000E+000 0.250000000000000E+000 0.000000000000000E+000
 0.875000000000000E+000 0.500000000000000E+000 0.000000000000000E+000
 0.727921748554044E+000 0.101601148842529E+000 0.000000000000000E+000
 0.759582972952604E+000 0.183381972603444E+000 0.000000000000000E+000
 0.875000000000000E+000 0.375000000000000E+000 0.000000000000000E+000
 0.718750000000000E+000 0.343750000000000E+000 0.000000000000000E+000
 0.697916666666667E+000 0.437500000000000E+000 0.000000000000000E+000
 0.750000000000000E+000 0.572048611111111E+000 0.000000000000000E+000
 0.787123226950355E+000 0.408133865248227E+000 0.000000000000000E+000
 0.804687500000000E+000 0.320312500000000E+000 0.000000000000000E+000
 0.700214460784314E+000 0.513965482026144E+000 0.000000000000000E+000
 0.783021635712153E+000 0.493366127722916E+000 0.000000000000000E+000
 0.625000000000000E+000 0.625000000000000E+000 0.000000000000000E+000
 0.848380638879200E+000 0.437500000000000E+000 0.000000000000000E+000
 0.562500000000000E+000 0.404604515401992E-001 0.000000000000000E+000
 0.875000000000000E+000 0.625000000000000E+000 0.000000000000000E+000
 0.750000000000000E+000 0.750000000000000E+000 0.000000000000000E+000
 0.697046765904942E+000 0.621060933265583E+000 0.000000000000000E+000
 0.200520833333333E+000 0.494791666666667E+000 0.000000000000000E+000
 0.429642360217793E+000 0.800955091165693E+000 0.000000000000000E+000
 0.453073336954457E+000 0.687500000000000E+000 0.000000000000000E+000
 0.548183885155829E+000 0.693587592964698E+000 0.000000000000000E+000
 0.750000000000000E+000 0.100000000000000E+001 0.000000000000000E+000
 0.573843760532799E+000 0.437500000000000E+000 0.000000000000000E+000
 0.500000000000000E+000 0.550126792242997E+000 0.000000000000000E+000
 0.511972906944656E+000 0.477455600833011E+000 0.000000000000000E+000
 0.437507615834863E+000 0.452402202857321E+000 0.000000000000000E+000
 0.546458141439317E+000 0.614345103225503E+000 0.000000000000000E+000
 0.571440414895569E+000 0.547357897962524E+000 0.000000000000000E+000
 0.450991397292447E+000 0.610087136082382E+000 0.000000000000000E+000
 0.875000000000000E+000 0.000000000000000E+000 0.000000000000000E+000
 0.100000000000000E+001 0.250000000000000E+000 0.000000000000000E+000
 0.100000000000000E+001 0.375000000000000E+000 0.000000000000000E+000
 0.687500000000000E+000 0.700324699898860E+000 0.000000000000000E+000
 0.812500000000000E+000 0.687500000000000E+000 0.000000000000000E+000
 0.804621866531165E+000 0.617121866531165E+000 0.000000000000000E+000
 0.825181931429427E+000 0.549770415540467E+000 0.000000000000000E+000
 0.100000000000000E+001 0.625000000000000E+000 0.000000000000000E+000
 0.100000000000000E+001 0.750000000000000E+000 0.000000000000000E+000
[...]
CELL_DATA         1212
SCALARS tdens double 1
LOOKUP_TABLE default
 0.154303201310456E-007
 0.603018511293605E-008
 0.814612354964384E-008
 0.799967409609780E-008
 0.959992941031690E-007
 0.211164068494860E-006
 0.841243905532335E-007
 0.102369117088379E-006
 0.149263924426246E+000
 0.441715581040632E-001
 0.974161105736916E-001
 0.219357916980471E+000
 0.464430350815979E-008
 0.410128265678706E-008
 0.322595826771720E-008
 0.357617418892662E-008
 0.596665140259164E-008
 0.154482712635122E-007
 0.814295019319551E-008
 0.797900153814064E-008
 0.767433618997211E-008
 0.127743740004823E-007
 0.124912706265842E-007
 0.103427264835320E-007
 0.261126299689622E-007
 0.160275347794209E-007
 0.180299637318623E-007
 0.195663721414316E-007
 0.163059203954157E-005
 0.579909721165256E-006
 0.199987550965158E-006
 0.560241946534145E-006
 0.246566058864860E-001
 0.401600237997908E+000
 0.463113996821491E-002
 0.106949799496816E+000
 0.280231240982027E-008
 0.249235405853542E-008
 0.271406552695161E-008
 0.262192767761109E-008
 0.234284419402639E-006
 0.106934836809241E-006
 0.189993252269480E-006
 0.184547366567683E-006
 0.107785480600544E-007
 0.133036700741028E-007
 0.156807328762901E-007
 0.130070655005461E-007
 0.885758858753996E-007
 0.104467383202911E-006
 0.179583891620001E-007
 0.504204789466118E-007
 0.341993239928757E+000
 0.805182740469951E-001
 0.141778094139942E-001
 0.184176684621109E+000
 0.417422041391446E-007
 0.394974496501790E-007
 0.460894993669080E-007
 0.420139917602682E-007
 0.200524475432741E-001
 0.557824409037406E-001
 0.178202641565228E+001
 0.225727986835310E+000
 0.391379576993668E-008
 0.292547379424431E-008
 0.295997181488188E-008
 0.311217233010616E-008
 0.423428471652271E-008
 0.468284450521745E-008
 0.535728711105821E-008
 0.477209560543267E-008
 0.493893003604304E-008
 0.642515925143913E-008
 0.298563124278634E-008
 0.384998630513859E-008
 0.227922635124021E-001
 0.671177806058766E-001
 0.214363577959751E-002
 0.564037105897073E-001
 0.187753115614449E-006
 0.391969369352534E-007
 0.146749168938615E-006
 0.944355121299133E-007
 0.325315730452946E-008
 0.276486324264674E-008
 0.250777147959213E-008
 0.267751460895031E-008
 0.261991867530623E-001
 0.127707052975687E+000
 0.597338839353131E-002
 0.441162670681011E-001
 0.655760040714617E-008
 0.555321547249789E-008
 0.569172451874949E-008
 0.601579309145901E-008
 0.385246862368522E-008
 0.294720760643547E-008
 0.301182654831012E-008
 0.313880169841214E-008
 0.216901538401701E-007
 0.267153859404850E-007
 0.481705904096120E-007
 0.286831061477716E-007
 0.616746951166565E-008
 0.531024689911863E-008
 0.688821502638535E-008
 0.596723354966354E-008
 0.282070754062194E-001
 0.155937862747375E-001
 0.265218516850271E+000
 0.628010722198466E-002
 0.241776354460057E-007
 0.545651724146852E-008
 0.717272893204987E-008
 0.863917273289348E-008
 0.151849801418471E-006
 0.103282656080049E-005
 0.295505552923006E-006
 0.236593238252617E-006
 0.145046447049978E-007
 0.773751201543269E-008
 0.952449519544646E-008
 0.100784558865613E-007
 0.131727007123530E-007
 0.542235039576915E-008
 0.531945843257255E-008
 0.657972933911837E-008
 0.652079692540783E-002
 0.505930167718297E-001
 0.552742158188031E-002
 0.285092643930204E-001
 0.681936639613946E-007
 0.354214963232629E-007
 0.969708294088326E-007
 0.668154506962527E-007
 0.126424930897314E-006
 0.325202254657776E-006
 0.118179834624615E-006
 0.140123254447213E-006
 0.667592530082432E-008
 0.841940727009813E-008
 0.116554669546756E-007
 0.880723224228751E-008
 0.449750041242545E-008
 0.291760847713681E-008
 0.380521171831429E-008
 0.356398928663757E-008
 0.219845215484062E-007
 0.112627747804423E-007
 0.406537252750381E-007
 0.195776165651102E-007
 0.105477391726105E-007
 0.168146447829706E-007
 0.153179014535338E-007
 0.138890114875254E-007
 0.280940046703476E-008
 0.249835492842623E-008
 0.273219131159184E-008
 0.264165444852619E-008
 0.393883513103783E-008
 0.297007331910742E-008
 0.294021512322155E-008
 0.312787972221009E-008
 0.528664915631695E-008
 0.478574244845562E-008
 0.297767986253526E-008
 0.377887877992206E-008
 0.690202222723787E+000
 0.272978529849494E+000
 0.227085111695883E-001
 0.535346425140184E+000
 0.283248179798002E-002
 0.479083481258117E-002
 0.286426032148402E+001
 0.320845167309688E-002
 0.293983227757096E+000
 0.777907843579905E-001
 0.291442567647622E+000
 0.527042924424131E-001
 0.462154250699787E-007
 0.538141902243610E-007
 0.646841412788274E-007
 0.540439952859807E-007
 0.405706333136296E-007
 0.111843528487209E-007
 0.227723468489584E-007
 0.198792088772375E-007
 0.882885892936812E-008
 0.767783197612609E-008
 0.147780682802694E-007
 0.978429069502033E-008
 0.575196578684118E-008
 0.555507878272933E-008
 0.657342347292200E-008
 0.603953036655731E-008
 0.342047414984011E-007
 0.536944442531031E-007
 0.262497678344507E-007
 0.349290084414691E-007
 0.687378097654707E-008
 0.529888333178300E-008
 0.614005600391378E-008
 0.595176891563966E-008
 0.159996463298260E-007
 0.248066416823231E-007
 0.193478423334118E-007
 0.199340497441426E-007
 0.455134978991294E-008
 0.536783698016295E-008
 0.689117538484495E-008
 0.558686087230888E-008
 0.367517645701425E-008
 0.412501523922614E-008
 0.285760130902323E-008
 0.337814699753561E-008
 0.691748092101050E-008
 0.111356258187406E-007
 0.862016471580165E-008
 0.867156934768383E-008
 0.116074681715970E-007
 0.175434699107774E-007
 0.185269013208802E-007
 0.155483225740674E-007
 0.395917131664885E-007
 0.512960327237681E-007
 0.470058964082706E-007
 0.462195953648786E-007
 0.407739722401173E-007
 0.784096049950205E-007
 0.112379546689270E-006
 0.742621408787554E-007
 0.440495496047910E-005
 0.780968580271485E-006
 0.715949325330741E-006
 0.801216415194178E-006
 0.889551736302714E-006
 0.238832927730970E-005
 0.313444512730757E-005
 0.275527736624146E-005
 0.510556579839654E-006
 0.148665104446746E-005
 0.245877377520369E-006
 0.544205916451479E-006
 0.610976544775703E-008
 0.481004086786355E-008
 0.726667621413233E-008
 0.586086213561519E-008
 0.221686409396649E-005
 0.153131352016786E-005
 0.444680722658754E-006
 0.954046782467017E-006
 0.263524981670228E-006
 0.137280955612220E-005
 0.592850572278958E-006
 0.586911246218108E-006
 0.180863269260332E-007
 0.257033293623352E-007
 0.260476269041066E-007
 0.226841224324668E-007
 0.750728009030989E-007
 0.441805133831213E-007
 0.901173601436969E-007
 0.700149590828925E-007
 0.313252588511054E-007
 0.360621285387139E-007
 0.402220615306601E-007
 0.345600185994008E-007
 0.889239483376607E-004
 0.239274314097500E-003
 0.244209211154615E-002
 0.133625861815166E-003
 0.611176288987358E-006
 0.143972371762616E-006
 0.454296389379061E-006
 0.498407925741931E-006
 0.166668042048408E-006
 0.388572356493799E-006
 0.131358207312703E-006
 0.174468909755229E-006
 0.235568600356814E-006
 0.248394495637930E-006
 0.921979372972185E-007
 0.212151497939666E-006
 0.231875470447179E-007
 0.254673657860302E-007
 0.178132206383204E-007
 0.219693797585358E-007
 0.892285968097928E-007
 0.258521457718726E-006
 0.147964725985547E-006
 0.138741305554094E-006
 0.744583338833056E-006
 0.379322110012714E-005
 0.426527363595365E-005
 0.381533533648378E-005
 0.531273087457590E-007
 0.860177703228246E-007
 0.433042693753077E-007
 0.545723747350644E-007
 0.413893133398400E-008
 0.369184761387358E-008
 0.286304180802706E-008
 0.338927430690719E-008
 0.294387809275417E-007
 0.397442531490484E-007
 0.326548947540793E-007
 0.333205403215214E-007
 0.672976532919006E-007
 0.952128246084793E-007
 0.579837584114341E-007
 0.689399422562451E-007
 0.319771561556732E-007
 0.362846772156009E-007
 0.355750802368090E-007
 0.349126051093184E-007
 0.379512270987862E-007
 0.480312815334094E-007
 0.385431118621211E-007
 0.402265428267888E-007
 0.344267287945883E-008
 0.460902559967787E-008
 0.425637021370258E-008
 0.396429970231722E-008
 0.437156448221851E-008
 0.328114018997397E-008
 0.405108984186619E-008
 0.356749329048116E-008
 0.222060062989569E-007
 0.718280227669850E-008
 0.521620839436399E-008
 0.795854571250387E-008
 0.163820534559001E-006
 0.127510840939504E-006
 0.353414965980613E-007
 0.838607637100900E-007
 0.480521644215149E-007
 0.347518450627860E-007
 0.233716623755963E-007
 0.341095291484722E-007
 0.884920941066229E-008
 0.143757234967664E-007
 0.768942588082604E-008
 0.975753357797076E-008
 0.109630144786629E+001
 0.478067992879635E+000
 0.107893308254309E+000
 0.801749827531319E+000
 0.176090864724506E-007
 0.266837815439586E-007
 0.214068076780529E-007
 0.203672294909553E-007
 0.453116975588067E-008
 0.661060730492103E-008
 0.537469578437801E-008
 0.548635079152745E-008
 0.138683632124539E-007
 0.890869514480913E-008
 0.761847745530430E-008
 0.968485093138966E-008
 0.449630180746576E-008
 0.335412628453430E-008
 0.418366291642055E-008
 0.385612389557252E-008
 0.133343683744580E-007
 0.523305709457574E-008
 0.544947125550461E-008
 0.656432359295216E-008
 0.170149156059025E+000
 0.336875529952444E-001
 0.208767977734712E+000
 0.861745898844010E-001
 0.557673998405806E-002
 0.711146977557250E-001
 0.639753902768435E-002
 0.381009912458430E-001
 0.593596726027175E-006
 0.237962523553312E-005
 0.193957336837231E-005
 0.217624721108640E-005
 0.768665427985528E-007
 0.452797617510257E-007
 0.700355065400430E-007
 0.641425262353754E-007
 0.355297305851445E-006
 0.137841857434886E-006
 0.663226029647508E-006
 0.412291921250546E-006
 0.143951693070249E-006
 0.453663374399587E-006
 0.723306297517084E-006
 0.411598593393969E-006
 0.395440228252874E-007
 0.447441388811643E-007
 0.325747751714689E-007
 0.396934977091780E-007
 0.126719960168021E-006
 0.113132096503907E-006
 0.279297674480980E-006
 0.135870934558741E-006
 0.464805917513030E-007
 0.431257765457806E-007
 0.712134029255647E-007
 0.492885786969332E-007
 0.497653997584875E-007
 0.754694913686319E-007
 0.557834437305979E-007
 0.579131068795168E-007
 0.349598195193017E-007
 0.244903741548804E-007
 0.313750295452776E-007
 0.304696939876993E-007
 0.254390085352298E-007
 0.343516258204924E-007
 0.294192715807473E-007
 0.282367924042024E-007
 0.148566999387945E-005
 0.331372921339798E-005
 0.406298514812965E-006
 0.948018307048440E-006
 0.147612096365078E-006
 0.275310779182004E-006
 0.121317916625638E-005
 0.229398346814566E-006
 0.140311617997219E-005
 0.207666862660725E-006
 0.429530243794748E-006
 0.438970251734833E-006
 0.517625646652209E-007
 0.793763374235012E-007
 0.810026721302973E-007
 0.733053470180249E-007
 0.303773268095050E-007
 0.251422565820643E-007
 0.547025861753368E-007
 0.331743738974588E-007
 0.124871057820779E+001
 0.811976374423307E+000
 0.874859035612676E-002
 0.150118200514182E+001
 0.280463661288102E-001
 0.609116380764541E-002
 0.178134044875437E+000
 0.523827823446335E-001
 0.281240971651532E-007
 0.376835229696561E-007
 0.288866719174985E-007
 0.308463287838366E-007
 0.119711660728746E-001
 0.895936052779775E-001
 0.289815706689063E+000
 0.197343515682531E+000
 0.425173817107767E-001
 0.100162433183557E+000
 0.683895360192184E-001
 0.417324199084673E-001
 0.310696561697480E-001
 0.573139394400910E+000
 0.265309964437577E+000
 0.404091864703437E+000
 0.225585400795526E+000
 0.241001260329210E+000
 0.349954954804240E+000
 0.335756974140682E+000
 0.656070337428723E-007
 0.138608780369994E-006
 0.845614991119178E-007
 0.868393544986105E-007
 0.249508801185783E-008
 0.284379527207966E-008
 0.274696157512658E-008
 0.265166209364714E-008
 0.340110105098605E-008
 0.250152925639261E-008
 0.277853376700542E-008
 0.268773794669904E-008
 0.128623153799085E+000
 0.177932788800592E+000
 0.187075776863910E-001
 0.163648606752755E+000
 0.693108798163833E-008
 0.478605322719002E-008
 0.606948970133799E-008
 0.574927678757245E-008
 0.397876414447773E-001
 0.187858001432449E+000
 0.667943210800168E-001
 0.155845754156915E+000
 0.426181151598820E-001
 0.633039818544404E-001
 0.151056352967895E+000
 0.337656978062281E-001
 0.672946812750929E-002
 0.590016439487001E-002
 0.613277783954849E-001
 0.306957095400184E-001
 0.559845898158290E-002
 0.742068551588759E-001
 0.540397894328093E-002
 0.357060947650977E-001
 0.160834450268672E-002
 0.232007589832588E-002
 0.237272364100713E-002
 0.250246033510041E-002
 0.327984142394003E-001
 0.171750951605312E-001
 0.787650597638892E+000
 0.813270661749994E-001
 0.795308943245059E+000
 0.294094117455345E+000
 0.113024864369402E-001
 0.686467366130167E+000
 0.940149217639729E-002
 0.216456278140870E-001
 0.132834353353577E+001
 0.155469408107036E-001
 0.282674892073403E-001
 0.679346599176847E-001
 0.275654941701518E+000
 0.199603118773350E-001
 0.679834131440899E-001
 0.728775123569030E-001
 0.498404905281890E+000
 0.891333100041947E-001
 0.838697129378716E-002
 0.618869815489959E-001
 0.552976381082786E-001
 0.454424736335124E-001
 0.136916352418391E-001
 0.134247922991185E+001
 0.822049731903649E+000
 0.141162680557272E+001
 0.179453833399625E+001
 0.302931712914023E-001
 0.226097386576774E+001
 0.209811542516730E+001
 0.240861415027762E+000
 0.237052186529114E-001
 0.210513142340424E+000
 0.326288881718919E+000
 0.560634632789211E-002
 0.186544285272312E+000
 0.684310287504044E-002
 0.383621520932603E-001
 0.157996130451427E-002
 0.361363198125489E-002
 0.420496553855978E+000
 0.148374782074216E-002
 0.100025556428756E-005
 0.777944925452543E-006
 0.677095331812937E-005
 0.964065421057797E-006
 0.466617209166958E-008
 0.421142636509331E-008
 0.533119732971658E-008
 0.475030765143120E-008
 0.291098953824481E-008
 0.444596615607029E-008
 0.378573677667165E-008
 0.354783218494133E-008
 0.842704037677816E-002
 0.685743741455979E-001
 0.323024985215497E-002
 0.147308395707637E-001
 0.510978544276191E+000
 0.295622579583744E+000
 0.291794235076876E+000
 0.329910133687254E+000
 0.326687363246110E-002
 0.850478480604322E+000
 0.268688567858614E-001
 0.829519944345242E-001
 0.549762681114458E+000
 0.122528930770678E+001
 0.390819162608191E+000
 0.741589882558338E+000
 0.219335696820118E-002
 0.514246767104866E-002
 0.353081144842766E-001
 0.119274424130094E-001
 0.126618647474529E+001
 0.705214431042635E-001
 0.124440181826041E-001
 0.233167661121252E+000
 0.284993391666091E+001
 0.795471198901963E-003
 0.351316023821720E+001
 0.459192432958141E+001
 0.213005262858808E-003
 0.414386031776185E-005
 0.290187311864514E-005
 0.353638327019237E-005
 0.212756556087574E+001
 0.101959122035860E-001
 0.192864646574628E-002
 0.169939646363745E-002
 0.548003821547178E-005
 0.331870440475112E-005
 0.795731730750421E-006
 0.368897306069370E-005
 0.426316843818446E-006
 0.317260405450363E-005
 0.606685625560662E-006
 0.617208804647172E-006
 0.446858902785228E-003
 0.104944824479069E-002
 0.584919447405131E-004
 0.856496763415790E-003
 0.345881209394798E-002
 0.530734336427521E+000
 0.107872783293111E-001
 0.229329191032563E-001
 0.859035024607018E-002
 0.102831781022064E-001
 0.919579700398332E+000
 0.104277707462553E+000
 0.236034830715181E-002
 0.195168770948831E-002
 0.256010691021674E-002
 0.240227884853341E-002
 0.589855679886996E+000
 0.118425178762977E-001
 0.742200885061796E-002
 0.593642186279679E-002
 0.194037312633777E-001
 0.171430232101614E+001
 0.669303616073662E-002
 0.439991120648130E-002
 0.175517945989392E-002
 0.363131209957156E+001
 0.351343099296787E+001
 0.414520802432951E+001
 0.670026988068562E-003
 0.635381639438513E-004
 0.620550788618568E-004
 0.511355419332376E-004
 0.242344211696732E-003
 0.880020205124855E-004
 0.235977755357533E-002
 0.121919472309423E-003
 0.102761421343397E-002
 0.469054112276123E-003
 0.567633290518364E-004
 0.835814672021591E-003
 0.181047351065253E-002
 0.217132725692507E-002
 0.445447780118363E+001
 0.111746239515008E-002
 0.113860412445226E-007
 0.924062412657581E-008
 0.180085759922370E-007
 0.119393608037916E-007
 0.672443446626266E-007
 0.111398987213935E-006
 0.144992406742492E-006
 0.104109359476944E-006
 0.396836755612081E-007
 0.584973710406008E-007
 0.537441739089246E-007
 0.505306351545715E-007
 0.549785191315541E-007
 0.386319093817831E-007
 0.411260252184885E-007
 0.428952993103358E-007
 0.134566621170180E-005
 0.110997132311537E-005
 0.234522800597747E-006
 0.118776664084539E-005
 0.224142772669881E-006
 0.145683090253567E-005
 0.322899500096186E-006
 0.340054159044180E-006
 0.501178159797397E-007
 0.611950070021794E-007
 0.429417627156596E-007
 0.508035445510377E-007
 0.420508331421623E-006
 0.239542513261055E-005
 0.338105860322042E-005
 0.234516814509965E-005
 0.146078797373072E-007
 0.131833719125367E-007
 0.226212539617811E-007
 0.160057616549483E-007
 0.311988989192600E+000
 0.114390665950224E+000
 0.164927484250461E+000
 0.236274327725084E+000
 0.438000575470777E-007
 0.793788820604161E-007
 0.528161399550396E-007
 0.549801035278765E-007
 0.327190107815365E-008
 0.557652759070385E-008
 0.568756324015632E-008
 0.444878825811126E-008
 0.245154585107405E-005
 0.245172981837026E-006
 0.102945523221710E-005
 0.470636680149583E-006
 0.338420257550189E-007
 0.409299192098249E-007
 0.285365443634919E-007
 0.343718445759683E-007
 0.846944580623926E-007
 0.860712783240702E-007
 0.462545270727581E-007
 0.756524271925599E-007
 0.219480780221250E-006
 0.119672676854245E-005
 0.199211603561128E-006
 0.221776968188021E-006
 0.612224640192644E-002
 0.521903588741039E-001
 0.709911324799317E-002
 0.333430541992448E-001
 0.362025199564137E+000
 0.197046197676854E+001
 0.838520191944956E+000
 0.105969727065827E+001
 0.242592094855586E-001
 0.258430841829012E+000
 0.346678785832478E+000
 0.351602897348838E+000
 0.172894455943679E-007
 0.256239569939767E-007
 0.233147489474835E-007
 0.207706612310823E-007
 0.726686698025592E-007
 0.395112891035432E-007
 0.354032405907796E-007
 0.435742778931424E-007
 0.766091917452759E-007
 0.345033754215778E-007
 0.333604708816609E-007
 0.414834207341896E-007
 0.154242652184273E-005
 0.263382505351469E-006
 0.158390982934211E-005
 0.130840350652457E-005
 0.148445313956451E-001
 0.448189292019739E-002
 0.637137183083615E-001
 0.151217111411958E-001
 0.742278650649468E+000
 0.426545885984226E-001
 0.366812913605688E+000
 0.678977808046079E+000
 0.272243162226807E+000
 0.571939452618282E+000
 0.339593627039828E+000
 0.433309047755645E+000
 0.250605550540029E-008
 0.319122005299053E-008
 0.274135017712345E-008
 0.268206812414962E-008
 0.524173189526689E-008
 0.800175616134557E-008
 0.244586696300398E-007
 0.819096082097953E-008
 0.937796057754208E-002
 0.333906588671757E-001
 0.801662164725782E-002
 0.113625330851810E-001
 0.119430941860316E-001
 0.893703443908125E-002
 0.305345245832048E-001
 0.896937078620984E-002
 0.151714280503003E+000
 0.525841504483281E-001
 0.533890471627605E-001
 0.858024227542296E-001
 0.876131228476125E-002
 0.138652375750396E-001
 0.557578685134998E-001
 0.674922738530219E-001
 0.205249574493826E-001
 0.381489945821934E-001
 0.610720445808415E+000
 0.101039213100423E+000
 0.318668455280407E-001
 0.196060087651010E+000
 0.662838836799010E-002
 0.621522299424411E-001
 0.140958265877081E+000
 0.101418923507305E+000
 0.415638420676745E-001
 0.599967895055225E-001
 0.154221247390132E-001
 0.110324861318618E+000
 0.229200183990414E+000
 0.557268767416356E-001
 0.177373584170851E-001
 0.536283819434880E+000
 0.668099264922966E+000
 0.106263908019403E+001
 0.955441646072421E-001
 0.484421880205755E-002
 0.186634834729642E+000
 0.118101034832070E+000
 0.407974628674938E-001
 0.209106444668930E+000
 0.334747719426174E-001
 0.832864949880291E-001
 0.299723100297983E-007
 0.654088550418423E-007
 0.161900767551333E-007
 0.330249974074716E-007
 0.194455779001058E-003
 0.127093667742942E-003
 0.457042819782915E-005
 0.203663120703154E-003
 0.302347000379964E-002
 0.194361058017995E-002
 0.217479525932995E-001
 0.974021083581399E-002
 0.131432179456543E-001
 0.364114959374056E-001
 0.135796612800843E-001
 0.929397518567304E-002
 0.364800343647811E-007
 0.321844436845559E-007
 0.367241996915345E-007
 0.352293028850939E-007
 0.400460425410004E-007
 0.373984105990772E-007
 0.314409895484897E-007
 0.353748319940335E-007
 0.916215214206469E-002
 0.499449809848738E-001