# vtk DataFile Version 3.0
Unstructured Grid
ASCII
DATASET UNSTRUCTURED_GRID
FIELD FieldData 1
TIME 1 1 float
  0.245625E+02
POINTS          640 double
 0.000000000000000E+000 0.000000000000000E+000 0.000000000000000E+000
 0.100000000000000E+001 0.000000000000000E+000 0.000000000000000E+000
 0.100000000000000E+001 0.100000000000000E+001 0.000000000000000E+000
 0.000000000000000E+000 0.100000000000000E+001 0.000000000000000E+000
 0.125000000000000E+000 0.250000000000000E+000 0.000000000000000E+000
 0.375000000000000E+000 0.250000000000000E+000 0.000000000000000E+000
 0.375000000000000E+000 0.750000000000000E+000 0.000000000000000E+000
 0.125000000000000E+000 0.750000000000000E+000 0.000000000000000E+000
 0.625000000000000E+000 0.250000000000000E+000 0.000000000000000E+000
 0.875000000000000E+000 0.250000000000000E+000 0.000000000000000E+000
 0.875000000000000E+000 0.750000000000000E+000 0.000000000000000E+000
 0.625000000000000E+000 0.750000000000000E+000 0.000000000000000E+000
 0.100000000000000E+001 0.500000000000000E+000 0.000000000000000E+000
 0.000000000000000E+000 0.500000000000000E+000 0.000000000000000E+000
 0.500000000000000E+000 0.000000000000000E+000 0.000000000000000E+000
 0.125000000000000E+000 0.500000000000000E+000 0.000000000000000E+000
 0.000000000000000E+000 0.750000000000000E+000 0.000000000000000E+000
 0.000000000000000E+000 0.250000000000000E+000 0.000000000000000E+000
 0.000000000000000E+000 0.875000000000000E+000 0.000000000000000E+000
 0.000000000000000E+000 0.125000000000000E+000 0.000000000000000E+000
 0.625000000000000E-001 0.812500000000000E+000 0.000000000000000E+000
 0.125000000000000E+000 0.375000000000000E+000 0.000000000000000E+000
 0.125000000000000E+000 0.625000000000000E+000 0.000000000000000E+000
 0.500000000000000E+000 0.100000000000000E+001 0.000000000000000E+000
 0.250000000000000E+000 0.100000000000000E+001 0.000000000000000E+000
 0.125000000000000E+000 0.100000000000000E+001 0.000000000000000E+000
 0.729166666666667E-001 0.885416666666667E+000 0.000000000000000E+000
 0.000000000000000E+000 0.625000000000000E+000 0.000000000000000E+000
 0.625000000000000E-001 0.562500000000000E+000 0.000000000000000E+000
 0.375000000000000E+000 0.500000000000000E+000 0.000000000000000E+000
 0.375000000000000E+000 0.100000000000000E+001 0.000000000000000E+000
 0.250000000000000E+000 0.000000000000000E+000 0.000000000000000E+000
 0.625000000000000E-001 0.187500000000000E+000 0.000000000000000E+000
 0.143518518518519E+000 0.775462962962963E-001 0.000000000000000E+000
 0.156250000000000E+000 0.156250000000000E+000 0.000000000000000E+000
 0.729166666666667E-001 0.114583333333333E+000 0.000000000000000E+000
 0.125000000000000E+000 0.000000000000000E+000 0.000000000000000E+000
 0.250000000000000E+000 0.250000000000000E+000 0.000000000000000E+000
 0.375000000000000E+000 0.000000000000000E+000 0.000000000000000E+000
 0.187500000000000E+000 0.218750000000000E+000 0.000000000000000E+000
 0.312500000000000E+000 0.762453007518797E-001 0.000000000000000E+000
 0.270259392278489E+000 0.159169301283415E+000 0.000000000000000E+000
 0.365310977506407E+000 0.155367112827996E+000 0.000000000000000E+000
 0.312500000000000E+000 0.216265619131990E+000 0.000000000000000E+000
 0.500000000000000E+000 0.189389379011873E+000 0.000000000000000E+000
 0.426456487258648E+000 0.196919158251449E+000 0.000000000000000E+000
 0.451620395371675E+000 0.941243892751461E-001 0.000000000000000E+000
 0.381804756165356E+000 0.871724813114945E-001 0.000000000000000E+000
 0.437500000000000E+000 0.273708879364394E-001 0.000000000000000E+000
 0.000000000000000E+000 0.375000000000000E+000 0.000000000000000E+000
 0.625000000000000E-001 0.312500000000000E+000 0.000000000000000E+000
 0.250000000000000E+000 0.750000000000000E+000 0.000000000000000E+000
 0.158482142857143E+000 0.851934523809524E+000 0.000000000000000E+000
 0.210861885404568E+000 0.921875000000000E+000 0.000000000000000E+000
 0.136017278952732E+000 0.925863358051789E+000 0.000000000000000E+000
 0.625000000000000E-001 0.687500000000000E+000 0.000000000000000E+000
 0.250000000000000E+000 0.437500000000000E+000 0.000000000000000E+000
 0.247528011619582E+000 0.839830719156545E+000 0.000000000000000E+000
 0.312500000000000E+000 0.796669265575374E+000 0.000000000000000E+000
 0.419664368355990E+000 0.875000000000000E+000 0.000000000000000E+000
 0.313183356674252E+000 0.918387829019328E+000 0.000000000000000E+000
 0.312500000000000E+000 0.100000000000000E+001 0.000000000000000E+000
 0.380617553087688E+000 0.931527612480385E+000 0.000000000000000E+000
 0.187500000000000E+000 0.785936956899548E+000 0.000000000000000E+000
 0.350379273974835E+000 0.857317802397078E+000 0.000000000000000E+000
 0.228046514569416E+000 0.817347524546315E-001 0.000000000000000E+000
 0.187500000000000E+000 0.312500000000000E+000 0.000000000000000E+000
 0.625000000000000E-001 0.437500000000000E+000 0.000000000000000E+000
 0.197916666666667E+000 0.385416666666667E+000 0.000000000000000E+000
 0.375000000000000E+000 0.375000000000000E+000 0.000000000000000E+000
 0.750000000000000E+000 0.000000000000000E+000 0.000000000000000E+000
 0.625000000000000E-001 0.959280303030303E+000 0.000000000000000E+000
 0.234375000000000E+000 0.562500000000000E+000 0.000000000000000E+000
 0.187500000000000E+000 0.687500000000000E+000 0.000000000000000E+000
 0.193892045454545E+000 0.618607954545455E+000 0.000000000000000E+000
 0.375000000000000E+000 0.625000000000000E+000 0.000000000000000E+000
 0.283775504647110E+000 0.640801989544002E+000 0.000000000000000E+000
 0.281298714846257E+000 0.504888901855782E+000 0.000000000000000E+000
 0.331282779604339E+000 0.562500000000000E+000 0.000000000000000E+000
 0.338845441361880E+000 0.687500000000000E+000 0.000000000000000E+000
 0.500000000000000E+000 0.775815254846569E+000 0.000000000000000E+000
 0.625000000000000E-001 0.407196969696970E-001 0.000000000000000E+000
 0.328125000000000E+000 0.437500000000000E+000 0.000000000000000E+000
 0.284143518518519E+000 0.340856481481482E+000 0.000000000000000E+000
 0.312500000000000E+000 0.278356481481482E+000 0.000000000000000E+000
 0.625000000000000E+000 0.500000000000000E+000 0.000000000000000E+000
 0.410581328448014E+000 0.312500000000000E+000 0.000000000000000E+000
 0.543730092976870E+000 0.258404709955172E+000 0.000000000000000E+000
 0.625000000000000E+000 0.375000000000000E+000 0.000000000000000E+000
 0.500000000000000E+000 0.404784409423024E+000 0.000000000000000E+000
 0.590394028376448E+000 0.312500000000000E+000 0.000000000000000E+000
 0.467392923590959E+000 0.261422480241605E+000 0.000000000000000E+000
 0.508234229043035E+000 0.327522431406248E+000 0.000000000000000E+000
 0.625000000000000E+000 0.000000000000000E+000 0.000000000000000E+000
 0.537311919648379E+000 0.110523699730938E+000 0.000000000000000E+000
 0.750000000000000E+000 0.250000000000000E+000 0.000000000000000E+000
 0.593146640296986E+000 0.172723366619635E+000 0.000000000000000E+000
 0.623771215502605E+000 0.890722450407200E-001 0.000000000000000E+000
 0.687500000000000E+000 0.454068088573020E-001 0.000000000000000E+000
 0.793069391389776E+000 0.125000000000000E+000 0.000000000000000E+000
 0.695513657869308E+000 0.162768437982326E+000 0.000000000000000E+000
 0.687500000000000E+000 0.250000000000000E+000 0.000000000000000E+000
 0.875000000000000E+000 0.500000000000000E+000 0.000000000000000E+000
 0.727921748554044E+000 0.101601148842529E+000 0.000000000000000E+000
 0.759582972952604E+000 0.183381972603444E+000 0.000000000000000E+000
 0.875000000000000E+000 0.375000000000000E+000 0.000000000000000E+000
 0.718750000000000E+000 0.343750000000000E+000 0.000000000000000E+000
 0.697916666666667E+000 0.437500000000000E+000 0.000000000000000E+000
 0.750000000000000E+000 0.572048611111111E+000 0.000000000000000E+000
 0.787123226950355E+000 0.408133865248227E+000 0.000000000000000E+000
 0.804687500000000E+000 0.320312500000000E+000 0.000000000000000E+000
 0.700214460784314E+000 0.513965482026144E+000 0.000000000000000E+000
 0.783021635712153E+000 0.493366127722916E+000 0.000000000000000E+000
 0.625000000000000E+000 0.625000000000000E+000 0.000000000000000E+000
 0.848380638879200E+000 0.437500000000000E+000 0.000000000000000E+000
 0.562500000000000E+000 0.404604515401992E-001 0.000000000000000E+000
 0.875000000000000E+000 0.625000000000000E+000 0.000000000000000E+000
 0.750000000000000E+000 0.750000000000000E+000 0.000000000000000E+000
 0.697046765904942E+000 0.621060933265583E+000 0.000000000000000E+000
 0.200520833333333E+000 0.494791666666667E+000 0.000000000000000E+000
 0.429642360217793E+000 0.800955091165693E+000 0.000000000000000E+000
 0.453073336954457E+000 0.687500000000000E+000 0.000000000000000E+000
 0.548183885155829E+000 0.693587592964698E+000 0.000000000000000E+000
 0.750000000000000E+000 0.100000000000000E+001 0.000000000000000E+000
 0.573843760532799E+000 0.437500000000000E+000 0.000000000000000E+000
 0.500000000000000E+000 0.550126792242997E+000 0.000000000000000E+000
 0.511972906944656E+000 0.477455600833011E+000 0.000000000000000E+000
 0.437507615834863E+000 0.452402202857321E+000 0.000000000000000E+000
 0.546458141439317E+000 0.614345103225503E+000 0.000000000000000E+000
 0.571440414895569E+000 0.547357897962524E+000 0.000000000000000E+000
 0.450991397292447E+000 0.610087136082382E+000 0.000000000000000E+000
 0.875000000000000E+000 0.000000000000000E+000 0.000000000000000E+000
 0.100000000000000E+001 0.250000000000000E+000 0.000000000000000E+000
 0.100000000000000E+001 0.375000000000000E+000 0.000000000000000E+000
 0.687500000000000E+000 0.700324699898860E+000 0.000000000000000E+000
 0.812500000000000E+000 0.687500000000000E+000 0.000000000000000E+000
 0.804621866531165E+000 0.617121866531165E+000 0.000000000000000E+000
 0.825181931429427E+000 0.549770415540467E+000 0.000000000000000E+000
 0.100000000000000E+001 0.625000000000000E+000 0.000000000000000E+000
 0.100000000000000E+001 0.750000000000000E+000 0.000000000000000E+000
[...]
CELL_DATA         1212
SCALARS tdens double 1
LOOKUP_TABLE default
 0.428643938171423E-003
 0.212683415428867E-003
 0.262138687448338E-003
 0.262750586944839E-003
 0.148044929782524E-002
 0.250421078786847E-002
 0.135469287143441E-002
 0.156644725912515E-002
 0.286803806909596E+000
 0.927234138309973E-001
 0.149494278016880E+000
 0.276089895784721E+000
 0.163941983616503E-003
 0.160825942607315E-003
 0.129591399925825E-003
 0.141781029185407E-003
 0.212691511562996E-003
 0.428785839103085E-003
 0.262415554394602E-003
 0.263203740541895E-003
 0.237876093274161E-003
 0.347542673699042E-003
 0.346312018305606E-003
 0.299270503953137E-003
 0.590288119487978E-003
 0.418018775900566E-003
 0.447999173440480E-003
 0.478750903992280E-003
 0.878380481203924E-002
 0.464561832732965E-002
 0.246182557803652E-002
 0.469658507836507E-002
 0.521669995642660E-001
 0.314542888142098E+000
 0.646619582921498E-001
 0.630221325012491E-001
 0.112186722016330E-003
 0.999501399769583E-004
 0.107948109637005E-003
 0.105127715865533E-003
 0.274719975338226E-002
 0.161170838940060E-002
 0.239165932343934E-002
 0.230407737622929E-002
 0.307249970596394E-003
 0.366584593329353E-003
 0.408796917645615E-003
 0.357593367334945E-003
 0.167266730513155E-002
 0.165764860731591E-002
 0.459466128706519E-003
 0.985935298518728E-003
 0.623583965176389E+000
 0.350122467798009E+000
 0.385699183157674E+000
 0.374046450849339E+000
 0.835659623735437E-003
 0.807308722869633E-003
 0.892173272356325E-003
 0.839483836630837E-003
 0.363141529972816E+000
 0.292851110528467E+000
 0.738231224787555E+000
 0.290159665575102E+000
 0.140286285634958E-003
 0.114837070829232E-003
 0.118751449670310E-003
 0.123190921647222E-003
 0.149333908695623E-003
 0.163766045574224E-003
 0.180544013055997E-003
 0.165316472318682E-003
 0.151250724402039E-003
 0.155463716652988E-003
 0.114009729756387E-003
 0.128920550564959E-003
 0.647341119244351E+000
 0.565337155578736E+000
 0.236925016915447E+000
 0.714021464805264E+000
 0.243902387012473E-002
 0.827743062153227E-003
 0.236542683179745E-002
 0.156525404713757E-002
 0.120324665685223E-003
 0.108087562308512E-003
 0.999593799508452E-004
 0.105124087390855E-003
 0.196373672725923E-001
 0.100078432350479E+000
 0.370520872741386E-001
 0.309988738286871E-001
 0.221510345715233E-003
 0.192123451560717E-003
 0.203537322761094E-003
 0.208098171104935E-003
 0.139465095301899E-003
 0.114946654167497E-003
 0.118837149808226E-003
 0.123263099553253E-003
 0.508509978374227E-003
 0.597071923732386E-003
 0.924693940139595E-003
 0.635957519221187E-003
 0.203757921432170E-003
 0.183113896053262E-003
 0.226595293532127E-003
 0.200230524120982E-003
 0.259109396581036E-001
 0.108224067932160E+000
 0.836836903781285E-001
 0.803501931371320E-001
 0.579354177894362E-003
 0.201529642646069E-003
 0.226696082796210E-003
 0.265232644151467E-003
 0.228926641066873E-002
 0.959401655233128E-002
 0.398744199277626E-002
 0.343494846192555E-002
 0.386537954861186E-003
 0.239727049289917E-003
 0.278713110433045E-003
 0.293905140240621E-003
 0.391111777800967E-003
 0.201167936100743E-003
 0.194715312996334E-003
 0.234145377261776E-003
 0.574070523218939E-002
 0.536822417684443E-001
 0.602894294866606E-002
 0.287022265723908E-001
 0.122933748424264E-002
 0.757376670283219E-003
 0.164885833010817E-002
 0.120156600233918E-002
 0.171101042099293E-002
 0.310076632342249E-002
 0.162961366669090E-002
 0.186434344811144E-002
 0.213743649807621E-003
 0.252815696162873E-003
 0.323953760621359E-003
 0.260961100329632E-003
 0.156708542988823E-003
 0.112127851210892E-003
 0.137443078580581E-003
 0.130734216061990E-003
 0.533036871762330E-003
 0.330436660789213E-003
 0.844473481433768E-003
 0.491083705565873E-003
 0.300443353312222E-003
 0.428910953831613E-003
 0.396771223478975E-003
 0.366575679065903E-003
 0.112579084451960E-003
 0.100046768671466E-003
 0.108526164496495E-003
 0.105425139234040E-003
 0.140621515042450E-003
 0.118933619328312E-003
 0.115185592416577E-003
 0.123559128613153E-003
 0.143675094492153E-003
 0.152006426168917E-003
 0.114359550745668E-003
 0.127678231086966E-003
 0.268002783263786E+000
 0.111491187072801E+000
 0.100457036250585E+000
 0.284788117319671E+000
 0.451268878189451E+000
 0.368326294063186E+000
 0.770337164630562E+000
 0.434548419349880E+000
 0.174512273540998E+000
 0.552642577384007E-001
 0.119189374709222E+000
 0.414236395564997E-001
 0.891610903084898E-003
 0.984810202432227E-003
 0.110977052448130E-002
 0.987636699414280E-003
 0.852235436922145E-003
 0.330173836546591E-003
 0.554544228950241E-003
 0.499723704075729E-003
 0.271949270673093E-003
 0.240624266791900E-003
 0.395065984611802E-003
 0.291977554305245E-003
 0.203571775550826E-003
 0.191943969164518E-003
 0.221350495982673E-003
 0.207969805440494E-003
 0.727267100563071E-003
 0.101873875580072E-002
 0.599896540285560E-003
 0.742495768064201E-003
 0.226279494157107E-003
 0.182900976528407E-003
 0.203495367189115E-003
 0.199980957466020E-003
 0.423633245662487E-003
 0.580861916111898E-003
 0.480962945368284E-003
 0.492449614035697E-003
 0.157887499263188E-003
 0.180427934628137E-003
 0.217412045963743E-003
 0.186121226908153E-003
 0.134229533521349E-003
 0.148214782117966E-003
 0.110458059360201E-003
 0.125734812183453E-003
 0.221518163983506E-003
 0.321560931244227E-003
 0.260643864111253E-003
 0.262587020039411E-003
 0.326154249326050E-003
 0.445405896643304E-003
 0.468708396822658E-003
 0.404013284595249E-003
 0.822283245328565E-003
 0.980843554269460E-003
 0.920414887117654E-003
 0.908679246513586E-003
 0.862702452843668E-003
 0.140708285939794E-002
 0.191491239565007E-002
 0.135419930720134E-002
 0.165953252656811E-001
 0.598208472920149E-002
 0.559548298560472E-002
 0.621241731252596E-002
 0.801019109515474E-002
 0.153728903267280E-001
 0.183290865088295E-001
 0.149741412478321E-001
 0.452705371666843E-002
 0.873398891392003E-002
 0.286405485704982E-002
 0.476777406462083E-002
 0.200003911457342E-003
 0.165360545930700E-003
 0.227800371319664E-003
 0.192091065865606E-003
 0.168813067394539E-001
 0.902907793621244E-002
 0.532931586011424E-002
 0.887941275217037E-002
 0.305245768947304E-002
 0.908883869325655E-002
 0.563716414950361E-002
 0.531857027627803E-002
 0.465845575836259E-003
 0.605464886809196E-003
 0.603241637236021E-003
 0.550456868229106E-003
 0.130815332687202E-002
 0.878742390287031E-003
 0.147259813156255E-002
 0.121839641811360E-002
 0.698715577598578E-003
 0.770861136904162E-003
 0.825676305620441E-003
 0.746439087592571E-003
 0.619145788416045E-001
 0.769478024357816E-001
 0.204496854148508E+000
 0.566942239983257E-001
 0.740872927924978E-002
 0.223145143038365E-002
 0.494740442692890E-002
 0.536688609959486E-002
 0.224066788521906E-002
 0.414520655385985E-002
 0.196858188349377E-002
 0.241513842361829E-002
 0.275541394124036E-002
 0.286241756208964E-002
 0.146132012503170E-002
 0.251011731574632E-002
 0.557481296268318E-003
 0.601880662682141E-003
 0.460462567722380E-003
 0.538182937479689E-003
 0.141084283632333E-002
 0.287752651916362E-002
 0.199380687323909E-002
 0.191271267103181E-002
 0.586102659625325E-002
 0.153524467628760E-001
 0.165563592249718E-001
 0.151491696612141E-001
 0.994569747010554E-003
 0.139634162402419E-002
 0.861876837547337E-003
 0.101735039022945E-002
 0.148397216669082E-003
 0.134443788957907E-003
 0.110527389004718E-003
 0.125872584907548E-003
 0.667423277748640E-003
 0.816055783031935E-003
 0.708490114170054E-003
 0.721840437025997E-003
 0.116912398541113E-002
 0.149243092568311E-002
 0.105910846611823E-002
 0.119710602909152E-002
 0.711282797987425E-003
 0.778868647401568E-003
 0.766081251184290E-003
 0.757179850761815E-003
 0.802007656386602E-003
 0.933712846895246E-003
 0.808172311453876E-003
 0.834606652520818E-003
 0.135183670174091E-003
 0.173736799091951E-003
 0.164525098966296E-003
 0.153845851798236E-003
 0.162045848262646E-003
 0.129637196535655E-003
 0.160442403397282E-003
 0.141380808344793E-003
 0.570604662727747E-003
 0.226400157511314E-003
 0.200211823534924E-003
 0.262226652164225E-003
 0.221286799569172E-002
 0.207351414846289E-002
 0.756362610502288E-003
 0.142378434383144E-002
 0.922227739029949E-003
 0.723064683203116E-003
 0.541782283224463E-003
 0.711104566501271E-003
 0.271784236656561E-003
 0.383440616092561E-003
 0.240015800476136E-003
 0.289431106491285E-003
 0.305627385511739E+000
 0.216116993332549E+000
 0.229786166901138E+000
 0.268379405442135E+000
 0.449405520736078E-003
 0.600929161834161E-003
 0.520062320094500E-003
 0.501431951137489E-003
 0.156807929239268E-003
 0.209245816336447E-003
 0.179648826822922E-003
 0.182626836461978E-003
 0.368776869780918E-003
 0.262764151574017E-003
 0.235462361972320E-003
 0.283198538256072E-003
 0.173326844811274E-003
 0.134770421816232E-003
 0.164355786151180E-003
 0.153349716666747E-003
 0.393320223561885E-003
 0.194543056343866E-003
 0.201611406133333E-003
 0.234633969381566E-003
 0.152747299843718E+000
 0.964732588726118E-001
 0.125460070006197E+000
 0.134966870051539E+000
 0.615053916991400E-002
 0.562049719274720E-001
 0.601798727694616E-002
 0.352007566286861E-001
 0.613370085447939E-002
 0.156423363204664E-001
 0.144584244388314E-001
 0.132940246189972E-001
 0.129777500372188E-002
 0.879092363556815E-003
 0.121754642653186E-002
 0.112194027200165E-002
 0.403805042742740E-002
 0.205629299161266E-002
 0.685184270996516E-002
 0.445805686697939E-002
 0.188356666531742E-002
 0.387962025582280E-002
 0.522356722151486E-002
 0.359606043267133E-002
 0.801780797590430E-003
 0.873918880201920E-003
 0.706048244814553E-003
 0.803700711867756E-003
 0.182535288286626E-002
 0.171745162247212E-002
 0.322378660271566E-002
 0.199251060985680E-002
 0.886868076970742E-003
 0.840799604458650E-003
 0.119765127727390E-002
 0.932150028058288E-003
 0.931552597198742E-003
 0.122569974541587E-002
 0.100535039799329E-002
 0.103457359431856E-002
 0.735622708490324E-003
 0.574686009370927E-003
 0.679218710196507E-003
 0.663793305906528E-003
 0.590711823640154E-003
 0.725548818599330E-003
 0.656313693385120E-003
 0.637620725298515E-003
 0.888020841502568E-002
 0.163217129293559E-001
 0.474510292000452E-002
 0.832750312091192E-002
 0.213888455824473E-002
 0.353189757271977E-002
 0.896992861423706E-002
 0.310235869145095E-002
 0.911454946518182E-002
 0.255878921466642E-002
 0.449652628568588E-002
 0.437365876070794E-002
 0.962979572543541E-003
 0.130387941997515E-002
 0.129936779893750E-002
 0.120725559253964E-002
 0.672933374418762E-003
 0.579410436856605E-003
 0.104766999878743E-002
 0.724166549649787E-003
 0.508900342806911E+000
 0.358209732647728E+000
 0.992231935889035E-001
 0.621838383255862E+000
 0.195791653358293E-001
 0.338103591443373E-001
 0.100482170258197E+000
 0.316289522470104E-001
 0.639765421687718E-003
 0.786275539195216E-003
 0.658203397911120E-003
 0.687620321776714E-003
 0.378737919884252E+000
 0.403139375615075E+000
 0.620564709512631E+000
 0.428261345995823E+000
 0.413255607659224E-001
 0.984663146918377E-001
 0.958289872507375E-001
 0.538127736405231E-001
 0.477759971278776E-001
 0.251379816427032E+000
 0.127111550372123E+000
 0.198419682261736E+000
 0.226245565630788E+000
 0.161889741631474E+000
 0.336255500237750E+000
 0.194820298511903E+000
 0.115258239152184E-002
 0.192064049944950E-002
 0.136609493622164E-002
 0.139933818277605E-002
 0.100020248066734E-003
 0.112513471992833E-003
 0.108411851144586E-003
 0.105353543136556E-003
 0.121194686577011E-003
 0.999529807700171E-004
 0.107858517610267E-003
 0.105038890854455E-003
 0.133607038988897E+000
 0.245325486020002E+000
 0.586245813587835E-001
 0.202166064113102E+000
 0.218314213971379E-003
 0.164145977303950E-003
 0.198258175956723E-003
 0.188433444164094E-003
 0.246651749955903E+000
 0.317746843706525E+000
 0.455489011358057E+000
 0.473145383486645E+000
 0.421191338112574E-001
 0.109873776022818E+000
 0.913366442804460E-001
 0.576898731057499E-001
 0.567747121134311E-002
 0.611312684393100E-002
 0.512408978928202E-001
 0.286211444352479E-001
 0.586255311241322E-002
 0.476641711585712E-001
 0.570327587922906E-002
 0.322427804885499E-001
 0.358494859044435E+000
 0.350514951274465E+000
 0.342806366292966E+000
 0.341212509894377E+000
 0.276023636582246E+000
 0.335585882169688E+000
 0.374272659609956E+000
 0.292706056415058E+000
 0.388422374538415E+000
 0.178450315006165E+000
 0.145797127470392E+000
 0.241801431935343E+000
 0.196410091998921E+000
 0.319087322343590E+000
 0.487683392895699E+000
 0.250500679006464E+000
 0.212473022747390E+000
 0.100282037166996E+000
 0.303042109392331E+000
 0.188211352468029E+000
 0.120071118541716E+000
 0.187128347945261E+000
 0.179113508816861E+000
 0.162152748889003E+000
 0.214208724678361E+000
 0.201771085017016E+000
 0.276300902330423E+000
 0.250488430725787E+000
 0.380509710729540E+000
 0.701749626083809E+000
 0.418960860872945E+000
 0.480379987245388E+000
 0.660521695857798E+000
 0.382056671998137E+000
 0.890744255323496E+000
 0.725127527916299E+000
 0.446021340367900E+000
 0.143096175860270E+000
 0.283730558390534E+000
 0.319008982851944E+000
 0.484541410982521E-001
 0.268932182100015E+000
 0.750663890026006E-001
 0.451585007489405E-001
 0.229844941361386E+000
 0.143313729971350E+000
 0.546922897048121E+000
 0.223073160971783E+000
 0.741816914269622E-002
 0.536203328742399E-002
 0.165485808814356E-001
 0.670064312254205E-002
 0.163551223553454E-003
 0.149074865739636E-003
 0.180319811823122E-003
 0.165075079448670E-003
 0.112051211285876E-003
 0.155982708859137E-003
 0.137253085200085E-003
 0.130561844199819E-003
 0.243246679301539E+000
 0.331619053161900E+000
 0.315789490995928E+000
 0.281109505807747E+000
 0.386658747604317E+000
 0.358472767430702E+000
 0.264122673262343E+000
 0.315466906369887E+000
 0.101182702492927E+000
 0.365029864164322E+000
 0.627749657306413E-001
 0.722875034753339E-001
 0.496359965186633E+000
 0.726830811591001E+000
 0.412780964015256E+000
 0.567618810931573E+000
 0.339863362892929E-001
 0.370334180134890E-001
 0.105291650610668E+000
 0.409381898970834E-001
 0.576679567925166E+000
 0.146358675111804E+000
 0.146145398700065E+000
 0.156679711611231E+000
 0.703236251809685E+000
 0.307254650809101E+000
 0.957378791847499E+000
 0.980675041067984E+000
 0.926624720345906E-001
 0.150596692557827E-001
 0.112888914112089E-001
 0.144514917978061E-001
 0.611637451135338E+000
 0.162128442740979E+000
 0.275875177354257E+000
 0.250675957207447E+000
 0.187833075387304E-001
 0.146012043375665E-001
 0.623375929608955E-002
 0.149464562450735E-001
 0.404494979074753E-002
 0.134802407965384E-001
 0.501470034490224E-002
 0.519794079460335E-002
 0.184794126249288E+000
 0.175300062301998E+000
 0.638473732737550E-001
 0.197932209921874E+000
 0.443235538679514E+000
 0.894412376168066E+000
 0.760580558342451E+000
 0.802999124615891E+000
 0.119200977440904E+000
 0.897515750299990E-001
 0.597339473719269E+000
 0.920085278003587E-001
 0.432283160655690E+000
 0.369914673233599E+000
 0.586346639797538E+000
 0.445051110149222E+000
 0.694875974896326E+000
 0.392170002846919E+000
 0.449954720025967E+000
 0.438796131973747E+000
 0.146407332804068E+000
 0.620837490459124E+000
 0.280557719234128E+000
 0.273294812147751E+000
 0.472871079216696E+000
 0.724226586802621E+000
 0.101082525265843E+001
 0.854141774913174E+000
 0.211691055275132E+000
 0.645873668675683E-001
 0.618957568752644E-001
 0.598666162210053E-001
 0.789772672198687E-001
 0.643786717780430E-001
 0.211268004875208E+000
 0.603867707257117E-001
 0.180094010117051E+000
 0.188160639073582E+000
 0.597524989227200E-001
 0.196731627865664E+000
 0.399098958815599E+000
 0.473889344271078E+000
 0.110505143983482E+001
 0.377456231399162E+000
 0.318308003400382E-003
 0.270814250040460E-003
 0.447088265665171E-003
 0.331789260466753E-003
 0.117989676981138E-002
 0.171507886652734E-002
 0.202101985328021E-002
 0.159995719666333E-002
 0.828067172325337E-003
 0.107455169206493E-002
 0.101225525484690E-002
 0.967667774485883E-003
 0.102225052906574E-002
 0.811571292660424E-003
 0.844033161288094E-003
 0.871566360651721E-003
 0.991103658303456E-002
 0.887189087862431E-002
 0.304224246480193E-002
 0.890887862159376E-002
 0.280451694484535E-002
 0.936014300459233E-002
 0.345078759699579E-002
 0.371565480042698E-002
 0.959149345016643E-003
 0.110272637559316E-002
 0.868203698911136E-003
 0.969808080077982E-003
 0.414976178789501E-002
 0.122295338333538E-001
 0.141271293190441E-001
 0.116375523918772E-001
 0.392261802349003E-003
 0.358132068737982E-003
 0.534051832795572E-003
 0.419437178424018E-003
 0.294691911376751E+000
 0.167158593341988E+000
 0.148059485863145E+000
 0.233685038685258E+000
 0.870248707147084E-003
 0.134440173723346E-002
 0.991664564735278E-003
 0.103409818093430E-002
 0.122478092892438E-003
 0.186680446473013E-003
 0.188353331373733E-003
 0.154553171140215E-003
 0.141011782133903E-001
 0.317978327785846E-002
 0.795862947106663E-002
 0.572842603112062E-002
 0.724048555915820E-003
 0.834836586343931E-003
 0.644758594859229E-003
 0.732473382346152E-003
 0.147267341319742E-002
 0.147448951712739E-002
 0.918998958758770E-003
 0.131206320880353E-002
 0.294599073092388E-002
 0.993882362117466E-002
 0.268394533180980E-002
 0.313216362767611E-002
 0.658845002681394E-002
 0.591487222411440E-001
 0.657924582472843E-002
 0.337879353038787E-001
 0.316815366365581E+000
 0.692146433574542E+000
 0.482730947869657E+000
 0.592565023639766E+000
 0.455465467694072E-001
 0.150762692187776E+000
 0.246132039843019E+000
 0.231852325129837E+000
 0.447913169555329E-003
 0.593541207368694E-003
 0.557227351979445E-003
 0.507376286150785E-003
 0.127778485351011E-002
 0.805941698177792E-003
 0.745493054042117E-003
 0.880867363635522E-003
 0.134060353796985E-002
 0.731655598736272E-003
 0.720695864440442E-003
 0.861508215614837E-003
 0.117280326342015E-001
 0.347603399337394E-002
 0.117676542265257E-001
 0.105305574776629E-001
 0.253746305619501E+000
 0.298044844931663E+000
 0.272648669144615E+000
 0.314274198203307E+000
 0.484593545942135E+000
 0.640127017261870E-001
 0.316446700335473E+000
 0.481618179128737E+000
 0.300932347673158E+000
 0.389416793064369E+000
 0.218075748369524E+000
 0.247929674219060E+000
 0.998150983460484E-004
 0.114468294985361E-003
 0.107239063203184E-003
 0.104559791972994E-003
 0.199831643933080E-003
 0.241539177466427E-003
 0.600736370777066E-003
 0.263561734921449E-003
 0.260942334471231E+000
 0.279535759004086E+000
 0.186192818693481E+000
 0.173898878931908E+000
 0.200041685131036E+000
 0.147825541233026E+000
 0.177711184784214E+000
 0.155384874539665E+000
 0.658632541521102E-001
 0.110303147693493E+000
 0.358082816132542E-001
 0.573115433574660E-001
 0.109140034006582E-001
 0.202688979247004E-001
 0.628939696717077E-001
 0.628967971664305E-001
 0.199849638118881E+000
 0.147783714031110E+000
 0.188488088421144E+000
 0.187737812574322E+000
 0.221378190861209E-001
 0.125630879707155E+000
 0.349284429676654E-001
 0.355250953684789E-001
 0.126099063718820E+000
 0.111982315700060E+000
 0.400166232263272E-001
 0.606013454382887E-001
 0.112345005093107E+000
 0.198681891699232E+000
 0.122138960137143E+000
 0.205942377824820E+000
 0.237894626678499E+000
 0.247352791313353E+000
 0.409814011043359E+000
 0.297253010014431E+000
 0.705643299350519E-001
 0.111457183315519E+000
 0.118875724536786E+000
 0.811495603757688E-001
 0.240325363655098E-001
 0.884246842767394E-001
 0.638633390386076E-001
 0.433809546607262E-001
 0.676454922158342E-003
 0.125976905948430E-002
 0.428250396836990E-003
 0.731116872381759E-003
 0.913995298003983E-001
 0.784456162417312E-001
 0.168657656234441E-001
 0.968459349231345E-001
 0.297798054719155E-002
 0.281916967484541E-002
 0.185223335491410E-001
 0.911036802605784E-002
 0.678286523023954E-001
 0.237101825575885E-001
 0.128282316491833E-001
 0.598309673022309E-001
 0.782017025765063E-003
 0.714640001204254E-003
 0.782527775941705E-003
 0.762408437298209E-003
 0.825150245118523E-003
 0.790389582559962E-003
 0.700961852390410E-003
 0.757964281017023E-003
 0.762406041362851E-001
 0.822730990262446E-001