# vtk DataFile Version 3.0
Unstructured Grid
ASCII
DATASET UNSTRUCTURED_GRID
FIELD FieldData 1
TIME 1 1 float
  0.965625E+02
POINTS          640 double
 0.000000000000000E+000 0.000000000000000E+000 0.000000000000000E+000
 0.100000000000000E+001 0.000000000000000E+000 0.000000000000000E+000
 0.100000000000000E+001 0.100000000000000E+001 0.000000000000000E+000
 0.000000000000000E+000 0.100000000000000E+001 0.000000000000000E+000
 0.125000000000000E+000 0.250000000000000E+000 0.000000000000000E+000
 0.375000000000000E+000 0.250000000000000E+000 0.000000000000000E+000
 0.375000000000000E+000 0.750000000000000E+000 0.000000000000000E+000
 0.125000000000000E+000 0.750000000000000E+000 0.000000000000000E+000
 0.625000000000000E+000 0.250000000000000E+000 0.000000000000000E+000
 0.875000000000000E+000 0.250000000000000E+000 0.000000000000000E+000
 0.875000000000000E+000 0.750000000000000E+000 0.000000000000000E+000
 0.625000000000000E+000 0.750000000000000E+000 0.000000000000000E+000
 0.100000000000000E+001 0.500000000000000E+000 0.000000000000000E+000
 0.000000000000000E+000 0.500000000000000E+000 0.000000000000000E+000
 0.500000000000000E+000 0.000000000000000E+000 0.000000000000000E+000
 0.125000000000000E+000 0.500000000000000E+000 0.000000000000000E+000
 0.000000000000000E+000 0.750000000000000E+000 0.000000000000000E+000
 0.000000000000000E+000 0.250000000000000E+000 0.000000000000000E+000
 0.000000000000000E+000 0.875000000000000E+000 0.000000000000000E+000
 0.000000000000000E+000 0.125000000000000E+000 0.000000000000000E+000
 0.625000000000000E-001 0.812500000000000E+000 0.000000000000000E+000
 0.125000000000000E+000 0.375000000000000E+000 0.000000000000000E+000
 0.125000000000000E+000 0.625000000000000E+000 0.000000000000000E+000
 0.500000000000000E+000 0.100000000000000E+001 0.000000000000000E+000
 0.250000000000000E+000 0.100000000000000E+001 0.000000000000000E+000
 0.125000000000000E+000 0.100000000000000E+001 0.000000000000000E+000
 0.729166666666667E-001 0.885416666666667E+000 0.000000000000000E+000
 0.000000000000000E+000 0.625000000000000E+000 0.000000000000000E+000
 0.625000000000000E-001 0.562500000000000E+000 0.000000000000000E+000
 0.375000000000000E+000 0.500000000000000E+000 0.000000000000000E+000
 0.375000000000000E+000 0.100000000000000E+001 0.000000000000000E+000
 0.250000000000000E+000 0.000000000000000E+000 0.000000000000000E+000
 0.625000000000000E-001 0.187500000000000E+000 0.000000000000000E+000
 0.143518518518519E+000 0.775462962962963E-001 0.000000000000000E+000
 0.156250000000000E+000 0.156250000000000E+000 0.000000000000000E+000
 0.729166666666667E-001 0.114583333333333E+000 0.000000000000000E+000
 0.125000000000000E+000 0.000000000000000E+000 0.000000000000000E+000
 0.250000000000000E+000 0.250000000000000E+000 0.000000000000000E+000
 0.375000000000000E+000 0.000000000000000E+000 0.000000000000000E+000
 0.187500000000000E+000 0.218750000000000E+000 0.000000000000000E+000
 0.312500000000000E+000 0.762453007518797E-001 0.000000000000000E+000
 0.270259392278489E+000 0.159169301283415E+000 0.000000000000000E+000
 0.365310977506407E+000 0.155367112827996E+000 0.000000000000000E+000
 0.312500000000000E+000 0.216265619131990E+000 0.000000000000000E+000
 0.500000000000000E+000 0.189389379011873E+000 0.000000000000000E+000
 0.426456487258648E+000 0.196919158251449E+000 0.000000000000000E+000
 0.451620395371675E+000 0.941243892751461E-001 0.000000000000000E+000
 0.381804756165356E+000 0.871724813114945E-001 0.000000000000000E+000
 0.437500000000000E+000 0.273708879364394E-001 0.000000000000000E+000
 0.000000000000000E+000 0.375000000000000E+000 0.000000000000000E+000
 0.625000000000000E-001 0.312500000000000E+000 0.000000000000000E+000
 0.250000000000000E+000 0.750000000000000E+000 0.000000000000000E+000
 0.158482142857143E+000 0.851934523809524E+000 0.000000000000000E+000
 0.210861885404568E+000 0.921875000000000E+000 0.000000000000000E+000
 0.136017278952732E+000 0.925863358051789E+000 0.000000000000000E+000
 0.625000000000000E-001 0.687500000000000E+000 0.000000000000000E+000
 0.250000000000000E+000 0.437500000000000E+000 0.000000000000000E+000
 0.247528011619582E+000 0.839830719156545E+000 0.000000000000000E+000
 0.312500000000000E+000 0.796669265575374E+000 0.000000000000000E+000
 0.419664368355990E+000 0.875000000000000E+000 0.000000000000000E+000
 0.313183356674252E+000 0.918387829019328E+000 0.000000000000000E+000
 0.312500000000000E+000 0.100000000000000E+001 0.000000000000000E+000
 0.380617553087688E+000 0.931527612480385E+000 0.000000000000000E+000
 0.187500000000000E+000 0.785936956899548E+000 0.000000000000000E+000
 0.350379273974835E+000 0.857317802397078E+000 0.000000000000000E+000
 0.228046514569416E+000 0.817347524546315E-001 0.000000000000000E+000
 0.187500000000000E+000 0.312500000000000E+000 0.000000000000000E+000
 0.625000000000000E-001 0.437500000000000E+000 0.000000000000000E+000
 0.197916666666667E+000 0.385416666666667E+000 0.000000000000000E+000
 0.375000000000000E+000 0.375000000000000E+000 0.000000000000000E+000
 0.750000000000000E+000 0.000000000000000E+000 0.000000000000000E+000
 0.625000000000000E-001 0.959280303030303E+000 0.000000000000000E+000
 0.234375000000000E+000 0.562500000000000E+000 0.000000000000000E+000
 0.187500000000000E+000 0.687500000000000E+000 0.000000000000000E+000
 0.193892045454545E+000 0.618607954545455E+000 0.000000000000000E+000
 0.375000000000000E+000 0.625000000000000E+000 0.000000000000000E+000
 0.283775504647110E+000 0.640801989544002E+000 0.000000000000000E+000
 0.281298714846257E+000 0.504888901855782E+000 0.000000000000000E+000
 0.331282779604339E+000 0.562500000000000E+000 0.000000000000000E+000
 0.338845441361880E+000 0.687500000000000E+000 0.000000000000000E+000
 0.500000000000000E+000 0.775815254846569E+000 0.000000000000000E+000
 0.625000000000000E-001 0.407196969696970E-001 0.000000000000000E+000
 0.328125000000000E+000 0.437500000000000E+000 0.000000000000000E+000
 0.284143518518519E+000 0.340856481481482E+000 0.000000000000000E+000
 0.312500000000000E+000 0.278356481481482E+000 0.000000000000000E+000
 0.625000000000000E+000 0.500000000000000E+000 0.000000000000000E+000
 0.410581328448014E+000 0.312500000000000E+000 0.000000000000000E+000
 0.543730092976870E+000 0.258404709955172E+000 0.000000000000000E+000
 0.625000000000000E+000 0.375000000000000E+000 0.000000000000000E+000
 0.500000000000000E+000 0.404784409423024E+000 0.000000000000000E+000
 0.590394028376448E+000 0.312500000000000E+000 0.000000000000000E+000
 0.467392923590959E+000 0.261422480241605E+000 0.000000000000000E+000
 0.508234229043035E+000 0.327522431406248E+000 0.000000000000000E+000
 0.625000000000000E+000 0.000000000000000E+000 0.000000000000000E+000
 0.537311919648379E+000 0.110523699730938E+000 0.000000000000000E+000
 0.750000000000000E+000 0.250000000000000E+000 0.000000000000000E+000
 0.593146640296986E+000 0.172723366619635E+000 0.000000000000000E+000
 0.623771215502605E+000 0.890722450407200E-001 0.000000000000000E+000
 0.687500000000000E+000 0.454068088573020E-001 0.000000000000000E+000
 0.793069391389776E+000 0.125000000000000E+000 0.000000000000000E+000
 0.695513657869308E+000 0.162768437982326E+000 0.000000000000000E+000
 0.687500000000000E+000 0.250000000000000E+000 0.000000000000000E+000
 0.875000000000000E+000 0.500000000000000E+000 0.000000000000000E+000
 0.727921748554044E+000 0.101601148842529E+000 0.000000000000000E+000
 0.759582972952604E+000 0.183381972603444E+000 0.000000000000000E+000
 0.875000000000000E+000 0.375000000000000E+000 0.000000000000000E+000
 0.718750000000000E+000 0.343750000000000E+000 0.000000000000000E+000
 0.697916666666667E+000 0.437500000000000E+000 0.000000000000000E+000
 0.750000000000000E+000 0.572048611111111E+000 0.000000000000000E+000
 0.787123226950355E+000 0.408133865248227E+000 0.000000000000000E+000
 0.804687500000000E+000 0.320312500000000E+000 0.000000000000000E+000
 0.700214460784314E+000 0.513965482026144E+000 0.000000000000000E+000
 0.783021635712153E+000 0.493366127722916E+000 0.000000000000000E+000
 0.625000000000000E+000 0.625000000000000E+000 0.000000000000000E+000
 0.848380638879200E+000 0.437500000000000E+000 0.000000000000000E+000
 0.562500000000000E+000 0.404604515401992E-001 0.000000000000000E+000
 0.875000000000000E+000 0.625000000000000E+000 0.000000000000000E+000
 0.750000000000000E+000 0.750000000000000E+000 0.000000000000000E+000
 0.697046765904942E+000 0.621060933265583E+000 0.000000000000000E+000
 0.200520833333333E+000 0.494791666666667E+000 0.000000000000000E+000
 0.429642360217793E+000 0.800955091165693E+000 0.000000000000000E+000
 0.453073336954457E+000 0.687500000000000E+000 0.000000000000000E+000
 0.548183885155829E+000 0.693587592964698E+000 0.000000000000000E+000
 0.750000000000000E+000 0.100000000000000E+001 0.000000000000000E+000
 0.573843760532799E+000 0.437500000000000E+000 0.000000000000000E+000
 0.500000000000000E+000 0.550126792242997E+000 0.000000000000000E+000
 0.511972906944656E+000 0.477455600833011E+000 0.000000000000000E+000
 0.437507615834863E+000 0.452402202857321E+000 0.000000000000000E+000
 0.546458141439317E+000 0.614345103225503E+000 0.000000000000000E+000
 0.571440414895569E+000 0.547357897962524E+000 0.000000000000000E+000
 0.450991397292447E+000 0.610087136082382E+000 0.000000000000000E+000
 0.875000000000000E+000 0.000000000000000E+000 0.000000000000000E+000
 0.100000000000000E+001 0.250000000000000E+000 0.000000000000000E+000
 0.100000000000000E+001 0.375000000000000E+000 0.000000000000000E+000
 0.687500000000000E+000 0.700324699898860E+000 0.000000000000000E+000
 0.812500000000000E+000 0.687500000000000E+000 0.000000000000000E+000
 0.804621866531165E+000 0.617121866531165E+000 0.000000000000000E+000
 0.825181931429427E+000 0.549770415540467E+000 0.000000000000000E+000
 0.100000000000000E+001 0.625000000000000E+000 0.000000000000000E+000
 0.100000000000000E+001 0.750000000000000E+000 0.000000000000000E+000
[...]
CELL_DATA         1212
SCALARS tdens double 1
LOOKUP_TABLE default
 0.100000000000000E-011
 0.100000000000000E-011
 0.100000000000000E-011
 0.100000000000000E-011
 0.100000000000000E-011
 0.100000000000000E-011
 0.100000000000000E-011
 0.100000000000000E-011
 0.329170490053938E-006
 0.295573708554153E-001
 0.617604986192169E-001
 0.101255603570402E+000
 0.100000000000000E-011
 0.100000000000000E-011
 0.100000000000000E-011
 0.100000000000000E-011
 0.100000000000000E-011
 0.100000000000000E-011
 0.100000000000000E-011
 0.100000000000000E-011
 0.100000000000000E-011
 0.100000000000000E-011
 0.100000000000000E-011
 0.100000000000000E-011
 0.100000000000000E-011
 0.100000000000000E-011
 0.100000000000000E-011
 0.100000000000000E-011
 0.100000000000000E-011
 0.100000000000000E-011
 0.100000000000000E-011
 0.100000000000000E-011
 0.235284834398189E-001
 0.514772718883113E+000
 0.455798462831667E-002
 0.101255640637210E+000
 0.100000000000000E-011
 0.100000000000000E-011
 0.100000000000000E-011
 0.100000000000000E-011
 0.100000000000000E-011
 0.100000000000000E-011
 0.100000000000000E-011
 0.100000000000000E-011
 0.100000000000000E-011
 0.100000000000000E-011
 0.100000000000000E-011
 0.100000000000000E-011
 0.100000000000000E-011
 0.100000000000000E-011
 0.100000000000000E-011
 0.100000000000000E-011
 0.401749586701340E-001
 0.126435332285951E-001
 0.197081109068381E-001
 0.743235305832964E-001
 0.100000000000000E-011
 0.100000000000000E-011
 0.100000000000000E-011
 0.100000000000000E-011
 0.404017037062947E-001
 0.136125477947711E+000
 0.168784200067347E+001
 0.472510282211066E+000
 0.100000000000000E-011
 0.100000000000000E-011
 0.100000000000000E-011
 0.100000000000000E-011
 0.100000000000000E-011
 0.100000000000000E-011
 0.100000000000000E-011
 0.100000000000000E-011
 0.100000000000000E-011
 0.100000000000000E-011
 0.100000000000000E-011
 0.100000000000000E-011
 0.837335104492104E-011
 0.493750938229728E-008
 0.100000000000000E-011
 0.250936232399606E-010
 0.100000000000000E-011
 0.100000000000000E-011
 0.100000000000000E-011
 0.100000000000000E-011
 0.100000000000000E-011
 0.100000000000000E-011
 0.100000000000000E-011
 0.100000000000000E-011
 0.158258376604252E-001
 0.787029678313612E-001
 0.562080769084451E-002
 0.337744406443937E-001
 0.100000000000000E-011
 0.100000000000000E-011
 0.100000000000000E-011
 0.100000000000000E-011
 0.100000000000000E-011
 0.100000000000000E-011
 0.100000000000000E-011
 0.100000000000000E-011
 0.100000000000000E-011
 0.100000000000000E-011
 0.100000000000000E-011
 0.100000000000000E-011
 0.100000000000000E-011
 0.100000000000000E-011
 0.100000000000000E-011
 0.100000000000000E-011
 0.294319084134113E-001
 0.124468268062601E-001
 0.264832275708362E+000
 0.180152954281465E-011
 0.100000000000000E-011
 0.100000000000000E-011
 0.100000000000000E-011
 0.100000000000000E-011
 0.100000000000000E-011
 0.100000000000000E-011
 0.100000000000000E-011
 0.100000000000000E-011
 0.100000000000000E-011
 0.100000000000000E-011
 0.100000000000000E-011
 0.100000000000000E-011
 0.100000000000000E-011
 0.100000000000000E-011
 0.100000000000000E-011
 0.100000000000000E-011
 0.669177220227094E-002
 0.710055177897701E-001
 0.507968586179130E-002
 0.293447985877688E-001
 0.100000000000000E-011
 0.100000000000000E-011
 0.100000000000000E-011
 0.100000000000000E-011
 0.100000000000000E-011
 0.100000000000000E-011
 0.100000000000000E-011
 0.100000000000000E-011
 0.100000000000000E-011
 0.100000000000000E-011
 0.100000000000000E-011
 0.100000000000000E-011
 0.100000000000000E-011
 0.100000000000000E-011
 0.100000000000000E-011
 0.100000000000000E-011
 0.100000000000000E-011
 0.100000000000000E-011
 0.100000000000000E-011
 0.100000000000000E-011
 0.100000000000000E-011
 0.100000000000000E-011
 0.100000000000000E-011
 0.100000000000000E-011
 0.100000000000000E-011
 0.100000000000000E-011
 0.100000000000000E-011
 0.100000000000000E-011
 0.100000000000000E-011
 0.100000000000000E-011
 0.100000000000000E-011
 0.100000000000000E-011
 0.100000000000000E-011
 0.100000000000000E-011
 0.100000000000000E-011
 0.100000000000000E-011
 0.105962008528769E+001
 0.451137810404282E+000
 0.165106518401150E-007
 0.686954948973056E+000
 0.100000000000000E-011
 0.100000000000000E-011
 0.365725594070802E+001
 0.100000000000000E-011
 0.281454193563018E+000
 0.730426228761096E-001
 0.746641489104609E+000
 0.220060395720931E-005
 0.100000000000000E-011
 0.100000000000000E-011
 0.100000000000000E-011
 0.100000000000000E-011
 0.100000000000000E-011
 0.100000000000000E-011
 0.100000000000000E-011
 0.100000000000000E-011
 0.100000000000000E-011
 0.100000000000000E-011
 0.100000000000000E-011
 0.100000000000000E-011
 0.100000000000000E-011
 0.100000000000000E-011
 0.100000000000000E-011
 0.100000000000000E-011
 0.100000000000000E-011
 0.100000000000000E-011
 0.100000000000000E-011
 0.100000000000000E-011
 0.100000000000000E-011
 0.100000000000000E-011
 0.100000000000000E-011
 0.100000000000000E-011
 0.100000000000000E-011
 0.100000000000000E-011
 0.100000000000000E-011
 0.100000000000000E-011
 0.100000000000000E-011
 0.100000000000000E-011
 0.100000000000000E-011
 0.100000000000000E-011
 0.100000000000000E-011
 0.100000000000000E-011
 0.100000000000000E-011
 0.100000000000000E-011
 0.100000000000000E-011
 0.100000000000000E-011
 0.100000000000000E-011
 0.100000000000000E-011
 0.100000000000000E-011
 0.100000000000000E-011
 0.100000000000000E-011
 0.100000000000000E-011
 0.100000000000000E-011
 0.100000000000000E-011
 0.100000000000000E-011
 0.100000000000000E-011
 0.100000000000000E-011
 0.100000000000000E-011
 0.100000000000000E-011
 0.100000000000000E-011
 0.100000000000000E-011
 0.100000000000000E-011
 0.100000000000000E-011
 0.100000000000000E-011
 0.100000000000000E-011
 0.100000000000000E-011
 0.100000000000000E-011
 0.100000000000000E-011
 0.100000000000000E-011
 0.100000000000000E-011
 0.100000000000000E-011
 0.100000000000000E-011
 0.100000000000000E-011
 0.100000000000000E-011
 0.100000000000000E-011
 0.100000000000000E-011
 0.100000000000000E-011
 0.100000000000000E-011
 0.100000000000000E-011
 0.100000000000000E-011
 0.100000000000000E-011
 0.100000000000000E-011
 0.100000000000000E-011
 0.100000000000000E-011
 0.100000000000000E-011
 0.100000000000000E-011
 0.100000000000000E-011
 0.100000000000000E-011
 0.100000000000000E-011
 0.100000000000000E-011
 0.100000000000000E-011
 0.100000000000000E-011
 0.100000000000000E-011
 0.100000000000000E-011
 0.100000000000000E-011
 0.100000000000000E-011
 0.100000000000000E-011
 0.100000000000000E-011
 0.100000000000000E-011
 0.100000000000000E-011
 0.100000000000000E-011
 0.100000000000000E-011
 0.100000000000000E-011
 0.100000000000000E-011
 0.100000000000000E-011
 0.100000000000000E-011
 0.100000000000000E-011
 0.100000000000000E-011
 0.100000000000000E-011
 0.100000000000000E-011
 0.100000000000000E-011
 0.100000000000000E-011
 0.100000000000000E-011
 0.100000000000000E-011
 0.100000000000000E-011
 0.100000000000000E-011
 0.100000000000000E-011
 0.100000000000000E-011
 0.100000000000000E-011
 0.100000000000000E-011
 0.100000000000000E-011
 0.100000000000000E-011
 0.100000000000000E-011
 0.100000000000000E-011
 0.100000000000000E-011
 0.100000000000000E-011
 0.100000000000000E-011
 0.100000000000000E-011
 0.100000000000000E-011
 0.100000000000000E-011
 0.100000000000000E-011
 0.100000000000000E-011
 0.100000000000000E-011
 0.100000000000000E-011
 0.100000000000000E-011
 0.100000000000000E-011
 0.100000000000000E-011
 0.100000000000000E-011
 0.100000000000000E-011
 0.100000000000000E-011
 0.100000000000000E-011
 0.100000000000000E-011
 0.100000000000000E-011
 0.100000000000000E-011
 0.100000000000000E-011
 0.100000000000000E-011
 0.100000000000000E-011
 0.100000000000000E-011
 0.100000000000000E-011
 0.100000000000000E-011
 0.100000000000000E-011
 0.100000000000000E-011
 0.100000000000000E-011
 0.100000000000000E-011
 0.100000000000000E-011
 0.100000000000000E-011
 0.100000000000000E-011
 0.100000000000000E-011
 0.100000000000000E-011
 0.100000000000000E-011
 0.100000000000000E-011
 0.100000000000000E-011
 0.100000000000000E-011
 0.100000000000000E-011
 0.100000000000000E-011
 0.100000000000000E-011
 0.100000000000000E-011
 0.100000000000000E-011
 0.100000000000000E-011
 0.100000000000000E-011
 0.100000000000000E-011
 0.100000000000000E-011
 0.131899119323402E+001
 0.556660129883152E+000
 0.125655749977161E+000
 0.958087198755429E+000
 0.100000000000000E-011
 0.100000000000000E-011
 0.100000000000000E-011
 0.100000000000000E-011
 0.100000000000000E-011
 0.100000000000000E-011
 0.100000000000000E-011
 0.100000000000000E-011
 0.100000000000000E-011
 0.100000000000000E-011
 0.100000000000000E-011
 0.100000000000000E-011
 0.100000000000000E-011
 0.100000000000000E-011
 0.100000000000000E-011
 0.100000000000000E-011
 0.100000000000000E-011
 0.100000000000000E-011
 0.100000000000000E-011
 0.100000000000000E-011
 0.364698388518528E-001
 0.113403137097642E-006
 0.313698200783073E+000
 0.105201076114286E-001
 0.634639230058394E-002
 0.128994667418316E+000
 0.537017634658454E-002
 0.387911133727845E-001
 0.100000000000000E-011
 0.100000000000000E-011
 0.100000000000000E-011
 0.100000000000000E-011
 0.100000000000000E-011
 0.100000000000000E-011
 0.100000000000000E-011
 0.100000000000000E-011
 0.100000000000000E-011
 0.100000000000000E-011
 0.100000000000000E-011
 0.100000000000000E-011
 0.100000000000000E-011
 0.100000000000000E-011
 0.100000000000000E-011
 0.100000000000000E-011
 0.100000000000000E-011
 0.100000000000000E-011
 0.100000000000000E-011
 0.100000000000000E-011
 0.100000000000000E-011
 0.100000000000000E-011
 0.100000000000000E-011
 0.100000000000000E-011
 0.100000000000000E-011
 0.100000000000000E-011
 0.100000000000000E-011
 0.100000000000000E-011
 0.100000000000000E-011
 0.100000000000000E-011
 0.100000000000000E-011
 0.100000000000000E-011
 0.100000000000000E-011
 0.100000000000000E-011
 0.100000000000000E-011
 0.100000000000000E-011
 0.100000000000000E-011
 0.100000000000000E-011
 0.100000000000000E-011
 0.100000000000000E-011
 0.100000000000000E-011
 0.100000000000000E-011
 0.100000000000000E-011
 0.100000000000000E-011
 0.100000000000000E-011
 0.100000000000000E-011
 0.100000000000000E-011
 0.100000000000000E-011
 0.100000000000000E-011
 0.100000000000000E-011
 0.100000000000000E-011
 0.100000000000000E-011
 0.100000000000000E-011
 0.100000000000000E-011
 0.100000000000000E-011
 0.100000000000000E-011
 0.100000000000000E-011
 0.100000000000000E-011
 0.100000000000000E-011
 0.100000000000000E-011
 0.130238782367759E+001
 0.827920920015941E+000
 0.926025140024650E-002
 0.159147564242371E+001
 0.277553613543941E-001
 0.595293172332238E-002
 0.190535508469981E+000
 0.502818651625834E-001
 0.100000000000000E-011
 0.100000000000000E-011
 0.100000000000000E-011
 0.100000000000000E-011
 0.178550415357418E-001
 0.116920990069958E-001
 0.177425457505150E-001
 0.108740123253367E+000
 0.459547237053540E-001
 0.741507844002803E-001
 0.205294967729596E-001
 0.123088062268297E-001
 0.238410407578373E-001
 0.662324913768513E+000
 0.354039786560855E+000
 0.453095200925002E+000
 0.845829142048216E-003
 0.385555096714217E+000
 0.515012417767931E+000
 0.761509740150897E+000
 0.100000000000000E-011
 0.100000000000000E-011
 0.100000000000000E-011
 0.100000000000000E-011
 0.100000000000000E-011
 0.100000000000000E-011
 0.100000000000000E-011
 0.100000000000000E-011
 0.100000000000000E-011
 0.100000000000000E-011
 0.100000000000000E-011
 0.100000000000000E-011
 0.165229072410251E+000
 0.138720115160181E-001
 0.228313305470572E-001
 0.474445779740982E-002
 0.100000000000000E-011
 0.100000000000000E-011
 0.100000000000000E-011
 0.100000000000000E-011
 0.260105684589907E-001
 0.432907449094312E+000
 0.959263655084576E-002
 0.109192314621433E-005
 0.575124597909733E-001
 0.295984839275634E-001
 0.221134058651252E+000
 0.441917658472275E-004
 0.147804882743837E-001
 0.599249367568524E-002
 0.122671673312165E+000
 0.355057918627788E-001
 0.518752783885667E-002
 0.977106715671563E-001
 0.511536288461303E-002
 0.356928039652555E-001
 0.100000000000000E-011
 0.100000000000000E-011
 0.100000000000000E-011
 0.100000000000000E-011
 0.335065436213163E-001
 0.150545674782824E-001
 0.887859651077773E+000
 0.107948944582971E+000
 0.790253995731697E+000
 0.295498208254523E+000
 0.200512595186036E-001
 0.665906003345636E+000
 0.169113197684375E-010
 0.166739286162834E-009
 0.133648031654463E+001
 0.225378308444961E-001
 0.475890851255966E-010
 0.921312404544255E-001
 0.290605253844144E+000
 0.139877683587386E+000
 0.142570684248585E-001
 0.928040289166072E-001
 0.800188957913829E+000
 0.225983955730311E-001
 0.294159642816415E-011
 0.903588532699039E-001
 0.882502140463749E-001
 0.222051562499244E-001
 0.102394472966897E-001
 0.152144504598051E+001
 0.939998685112565E+000
 0.161009126771597E+001
 0.191515788831187E+001
 0.117384300526099E-001
 0.238367351978527E+001
 0.237545755754719E+001
 0.410820029854181E+000
 0.384153305572928E-001
 0.172345103241695E+000
 0.272336986404834E+000
 0.481582451802530E-002
 0.950355541963644E-001
 0.643881976597965E-002
 0.315414046469247E-001
 0.100000000000000E-011
 0.100000000000000E-011
 0.188890916965364E+000
 0.100000000000000E-011
 0.100000000000000E-011
 0.100000000000000E-011
 0.100000000000000E-011
 0.100000000000000E-011
 0.100000000000000E-011
 0.100000000000000E-011
 0.100000000000000E-011
 0.100000000000000E-011
 0.100000000000000E-011
 0.100000000000000E-011
 0.100000000000000E-011
 0.100000000000000E-011
 0.149793079317957E-001
 0.144054556388300E-001
 0.222764309022104E-011
 0.125435359883400E-001
 0.752195571921733E+000
 0.213882554422498E+000
 0.950978013056242E-001
 0.871306935156942E-001
 0.100000000000000E-011
 0.880401019461622E+000
 0.370033938379120E-001
 0.110642607149865E+000
 0.676184214448371E+000
 0.167311461530652E+001
 0.359918850365551E+000
 0.669289420247657E+000
 0.230825242238961E-002
 0.101632371726794E-001
 0.284684628801996E-001
 0.889377997862143E-002
 0.135260801478996E+001
 0.625622087517035E-001
 0.142678563390006E-001
 0.251531294580264E+000
 0.375943547265148E+001
 0.100000000000000E-011
 0.331347856947654E+001
 0.444143424720282E+001
 0.100000000000000E-011
 0.100000000000000E-011
 0.100000000000000E-011
 0.100000000000000E-011
 0.225976106640993E+001
 0.314844234734440E-011
 0.100000000000000E-011
 0.100000000000000E-011
 0.100000000000000E-011
 0.100000000000000E-011
 0.100000000000000E-011
 0.100000000000000E-011
 0.100000000000000E-011
 0.100000000000000E-011
 0.100000000000000E-011
 0.100000000000000E-011
 0.100000000000000E-011
 0.100000000000000E-011
 0.100000000000000E-011
 0.100000000000000E-011
 0.100000000000000E-011
 0.420926292296717E-001
 0.100000000000000E-011
 0.119344028035856E-011
 0.109299087537790E-001
 0.844314834565957E-002
 0.105245455968107E+001
 0.132138169647063E+000
 0.100000000000000E-011
 0.100000000000000E-011
 0.100000000000000E-011
 0.100000000000000E-011
 0.140639014464862E+000
 0.768824850399757E-011
 0.236377495881849E-011
 0.295503188038587E-011
 0.752838525119607E-010
 0.201142224808068E+001
 0.100000000000000E-011
 0.121867377028079E-011
 0.100000000000000E-011
 0.402706189390052E+001
 0.307786204316892E+001
 0.440904743292680E+001
 0.100000000000000E-011
 0.100000000000000E-011
 0.100000000000000E-011
 0.100000000000000E-011
 0.100000000000000E-011
 0.100000000000000E-011
 0.100000000000000E-011
 0.100000000000000E-011
 0.100000000000000E-011
 0.100000000000000E-011
 0.100000000000000E-011
 0.100000000000000E-011
 0.100000000000000E-011
 0.100000000000000E-011
 0.439281866679560E+001
 0.100000000000000E-011
 0.100000000000000E-011
 0.100000000000000E-011
 0.100000000000000E-011
 0.100000000000000E-011
 0.100000000000000E-011
 0.100000000000000E-011
 0.100000000000000E-011
 0.100000000000000E-011
 0.100000000000000E-011
 0.100000000000000E-011
 0.100000000000000E-011
 0.100000000000000E-011
 0.100000000000000E-011
 0.100000000000000E-011
 0.100000000000000E-011
 0.100000000000000E-011
 0.100000000000000E-011
 0.100000000000000E-011
 0.100000000000000E-011
 0.100000000000000E-011
 0.100000000000000E-011
 0.100000000000000E-011
 0.100000000000000E-011
 0.100000000000000E-011
 0.100000000000000E-011
 0.100000000000000E-011
 0.100000000000000E-011
 0.100000000000000E-011
 0.100000000000000E-011
 0.100000000000000E-011
 0.100000000000000E-011
 0.100000000000000E-011
 0.100000000000000E-011
 0.100000000000000E-011
 0.100000000000000E-011
 0.100000000000000E-011
 0.137787499123471E-001
 0.205755414252442E-001
 0.349933418542534E+000
 0.274355823003092E-002
 0.100000000000000E-011
 0.100000000000000E-011
 0.100000000000000E-011
 0.100000000000000E-011
 0.100000000000000E-011
 0.100000000000000E-011
 0.100000000000000E-011
 0.100000000000000E-011
 0.100000000000000E-011
 0.100000000000000E-011
 0.100000000000000E-011
 0.100000000000000E-011
 0.100000000000000E-011
 0.100000000000000E-011
 0.100000000000000E-011
 0.100000000000000E-011
 0.100000000000000E-011
 0.100000000000000E-011
 0.100000000000000E-011
 0.100000000000000E-011
 0.100000000000000E-011
 0.100000000000000E-011
 0.100000000000000E-011
 0.100000000000000E-011
 0.544028578848559E-002
 0.724768765509617E-001
 0.732389498160388E-002
 0.329607645979451E-001
 0.328400156385158E+000
 0.250617518093736E+001
 0.505725786828577E+000
 0.128063350345688E+001
 0.236439756235715E-001
 0.353870175756280E+000
 0.543282360818411E+000
 0.441797496729025E+000
 0.100000000000000E-011
 0.100000000000000E-011
 0.100000000000000E-011
 0.100000000000000E-011
 0.100000000000000E-011
 0.100000000000000E-011
 0.100000000000000E-011
 0.100000000000000E-011
 0.100000000000000E-011
 0.100000000000000E-011
 0.100000000000000E-011
 0.100000000000000E-011
 0.100000000000000E-011
 0.100000000000000E-011
 0.100000000000000E-011
 0.100000000000000E-011
 0.108764144754844E+000
 0.106255094487998E-008
 0.291070411102425E-008
 0.192319723052233E-001
 0.733773818074722E+000
 0.447362414313791E-001
 0.480043720003306E+000
 0.783404337018504E+000
 0.149193481722384E+000
 0.335510360125184E+000
 0.455020272784641E+000
 0.926041340543408E+000
 0.100000000000000E-011
 0.100000000000000E-011
 0.100000000000000E-011
 0.100000000000000E-011
 0.100000000000000E-011
 0.100000000000000E-011
 0.100000000000000E-011
 0.100000000000000E-011
 0.239416556304191E-001
 0.206727390184207E-001
 0.262147470590862E-001
 0.505144766140263E-010
 0.191898576499096E-001
 0.206986322617827E-001
 0.381074121162923E-001
 0.448242521317980E-008
 0.168738502617532E+000
 0.294300068635591E-001
 0.582581063291601E-001
 0.105740251237441E+000
 0.108891577331303E-001
 0.730601464492976E-007
 0.183391033278966E-001
 0.621595842196137E-001
 0.368578726209711E-005
 0.911080831108662E-001
 0.612453841190201E+000
 0.176145031330281E+000
 0.319969760373458E-001
 0.229213857793973E+000
 0.652248038757661E-002
 0.605756825984956E-001
 0.192272706226525E+000
 0.403979940707744E-004
 0.447832164912876E-001
 0.118581794451891E+000
 0.980360762318487E-002
 0.860915494952952E-001
 0.272312306992610E+000
 0.132294357541879E-001
 0.103987375912259E-001
 0.562090831281055E+000
 0.640811389422889E+000
 0.112427941596538E+001
 0.123086105391421E+000
 0.124965104279251E-011
 0.226611810723144E+000
 0.126318525429999E+000
 0.395876936174852E-001
 0.214548078658498E+000
 0.161312594180530E-001
 0.925033375160247E-001
 0.100000000000000E-011
 0.100000000000000E-011
 0.100000000000000E-011
 0.100000000000000E-011
 0.100000000000000E-011
 0.100000000000000E-011
 0.100000000000000E-011
 0.100000000000000E-011
 0.241433309077652E-002
 0.187037215453795E-002
 0.311076976525264E-001
 0.987132647767868E-002
 0.161036971866658E-001
 0.385607293075580E-001
 0.169149241802624E-001
 0.591091934980473E-011
 0.100000000000000E-011
 0.100000000000000E-011
 0.100000000000000E-011
 0.100000000000000E-011
 0.100000000000000E-011
 0.100000000000000E-011
 0.100000000000000E-011
 0.100000000000000E-011
 0.114928636860087E-008
 0.129730556803491E+000