# vtk DataFile Version 3.0
Unstructured Grid
ASCII
DATASET UNSTRUCTURED_GRID
FIELD FieldData 1
TIME 1 1 float
  0.223125E+02
POINTS          640 double
 0.000000000000000E+000 0.000000000000000E+000 0.000000000000000E+000
 0.100000000000000E+001 0.000000000000000E+000 0.000000000000000E+000
 0.100000000000000E+001 0.100000000000000E+001 0.000000000000000E+000
 0.000000000000000E+000 0.100000000000000E+001 0.000000000000000E+000
 0.125000000000000E+000 0.250000000000000E+000 0.000000000000000E+000
 0.375000000000000E+000 0.250000000000000E+000 0.000000000000000E+000
 0.375000000000000E+000 0.750000000000000E+000 0.000000000000000E+000
 0.125000000000000E+000 0.750000000000000E+000 0.000000000000000E+000
 0.625000000000000E+000 0.250000000000000E+000 0.000000000000000E+000
 0.875000000000000E+000 0.250000000000000E+000 0.000000000000000E+000
 0.875000000000000E+000 0.750000000000000E+000 0.000000000000000E+000
 0.625000000000000E+000 0.750000000000000E+000 0.000000000000000E+000
 0.100000000000000E+001 0.500000000000000E+000 0.000000000000000E+000
 0.000000000000000E+000 0.500000000000000E+000 0.000000000000000E+000
 0.500000000000000E+000 0.000000000000000E+000 0.000000000000000E+000
 0.125000000000000E+000 0.500000000000000E+000 0.000000000000000E+000
 0.000000000000000E+000 0.750000000000000E+000 0.000000000000000E+000
 0.000000000000000E+000 0.250000000000000E+000 0.000000000000000E+000
 0.000000000000000E+000 0.875000000000000E+000 0.000000000000000E+000
 0.000000000000000E+000 0.125000000000000E+000 0.000000000000000E+000
 0.625000000000000E-001 0.812500000000000E+000 0.000000000000000E+000
 0.125000000000000E+000 0.375000000000000E+000 0.000000000000000E+000
 0.125000000000000E+000 0.625000000000000E+000 0.000000000000000E+000
 0.500000000000000E+000 0.100000000000000E+001 0.000000000000000E+000
 0.250000000000000E+000 0.100000000000000E+001 0.000000000000000E+000
 0.125000000000000E+000 0.100000000000000E+001 0.000000000000000E+000
 0.729166666666667E-001 0.885416666666667E+000 0.000000000000000E+000
 0.000000000000000E+000 0.625000000000000E+000 0.000000000000000E+000
 0.625000000000000E-001 0.562500000000000E+000 0.000000000000000E+000
 0.375000000000000E+000 0.500000000000000E+000 0.000000000000000E+000
 0.375000000000000E+000 0.100000000000000E+001 0.000000000000000E+000
 0.250000000000000E+000 0.000000000000000E+000 0.000000000000000E+000
 0.625000000000000E-001 0.187500000000000E+000 0.000000000000000E+000
 0.143518518518519E+000 0.775462962962963E-001 0.000000000000000E+000
 0.156250000000000E+000 0.156250000000000E+000 0.000000000000000E+000
 0.729166666666667E-001 0.114583333333333E+000 0.000000000000000E+000
 0.125000000000000E+000 0.000000000000000E+000 0.000000000000000E+000
 0.250000000000000E+000 0.250000000000000E+000 0.000000000000000E+000
 0.375000000000000E+000 0.000000000000000E+000 0.000000000000000E+000
 0.187500000000000E+000 0.218750000000000E+000 0.000000000000000E+000
 0.312500000000000E+000 0.762453007518797E-001 0.000000000000000E+000
 0.270259392278489E+000 0.159169301283415E+000 0.000000000000000E+000
 0.365310977506407E+000 0.155367112827996E+000 0.000000000000000E+000
 0.312500000000000E+000 0.216265619131990E+000 0.000000000000000E+000
 0.500000000000000E+000 0.189389379011873E+000 0.000000000000000E+000
 0.426456487258648E+000 0.196919158251449E+000 0.000000000000000E+000
 0.451620395371675E+000 0.941243892751461E-001 0.000000000000000E+000
 0.381804756165356E+000 0.871724813114945E-001 0.000000000000000E+000
 0.437500000000000E+000 0.273708879364394E-001 0.000000000000000E+000
 0.000000000000000E+000 0.375000000000000E+000 0.000000000000000E+000
 0.625000000000000E-001 0.312500000000000E+000 0.000000000000000E+000
 0.250000000000000E+000 0.750000000000000E+000 0.000000000000000E+000
 0.158482142857143E+000 0.851934523809524E+000 0.000000000000000E+000
 0.210861885404568E+000 0.921875000000000E+000 0.000000000000000E+000
 0.136017278952732E+000 0.925863358051789E+000 0.000000000000000E+000
 0.625000000000000E-001 0.687500000000000E+000 0.000000000000000E+000
 0.250000000000000E+000 0.437500000000000E+000 0.000000000000000E+000
 0.247528011619582E+000 0.839830719156545E+000 0.000000000000000E+000
 0.312500000000000E+000 0.796669265575374E+000 0.000000000000000E+000
 0.419664368355990E+000 0.875000000000000E+000 0.000000000000000E+000
 0.313183356674252E+000 0.918387829019328E+000 0.000000000000000E+000
 0.312500000000000E+000 0.100000000000000E+001 0.000000000000000E+000
 0.380617553087688E+000 0.931527612480385E+000 0.000000000000000E+000
 0.187500000000000E+000 0.785936956899548E+000 0.000000000000000E+000
 0.350379273974835E+000 0.857317802397078E+000 0.000000000000000E+000
 0.228046514569416E+000 0.817347524546315E-001 0.000000000000000E+000
 0.187500000000000E+000 0.312500000000000E+000 0.000000000000000E+000
 0.625000000000000E-001 0.437500000000000E+000 0.000000000000000E+000
 0.197916666666667E+000 0.385416666666667E+000 0.000000000000000E+000
 0.375000000000000E+000 0.375000000000000E+000 0.000000000000000E+000
 0.750000000000000E+000 0.000000000000000E+000 0.000000000000000E+000
 0.625000000000000E-001 0.959280303030303E+000 0.000000000000000E+000
 0.234375000000000E+000 0.562500000000000E+000 0.000000000000000E+000
 0.187500000000000E+000 0.687500000000000E+000 0.000000000000000E+000
 0.193892045454545E+000 0.618607954545455E+000 0.000000000000000E+000
 0.375000000000000E+000 0.625000000000000E+000 0.000000000000000E+000
 0.283775504647110E+000 0.640801989544002E+000 0.000000000000000E+000
 0.281298714846257E+000 0.504888901855782E+000 0.000000000000000E+000
 0.331282779604339E+000 0.562500000000000E+000 0.000000000000000E+000
 0.338845441361880E+000 0.687500000000000E+000 0.000000000000000E+000
 0.500000000000000E+000 0.775815254846569E+000 0.000000000000000E+000
 0.625000000000000E-001 0.407196969696970E-001 0.000000000000000E+000
 0.328125000000000E+000 0.437500000000000E+000 0.000000000000000E+000
 0.284143518518519E+000 0.340856481481482E+000 0.000000000000000E+000
 0.312500000000000E+000 0.278356481481482E+000 0.000000000000000E+000
 0.625000000000000E+000 0.500000000000000E+000 0.000000000000000E+000
 0.410581328448014E+000 0.312500000000000E+000 0.000000000000000E+000
 0.543730092976870E+000 0.258404709955172E+000 0.000000000000000E+000
 0.625000000000000E+000 0.375000000000000E+000 0.000000000000000E+000
 0.500000000000000E+000 0.404784409423024E+000 0.000000000000000E+000
 0.590394028376448E+000 0.312500000000000E+000 0.000000000000000E+000
 0.467392923590959E+000 0.261422480241605E+000 0.000000000000000E+000
 0.508234229043035E+000 0.327522431406248E+000 0.000000000000000E+000
 0.625000000000000E+000 0.000000000000000E+000 0.000000000000000E+000
 0.537311919648379E+000 0.110523699730938E+000 0.000000000000000E+000
 0.750000000000000E+000 0.250000000000000E+000 0.000000000000000E+000
 0.593146640296986E+000 0.172723366619635E+000 0.000000000000000E+000
 0.623771215502605E+000 0.890722450407200E-001 0.000000000000000E+000
 0.687500000000000E+000 0.454068088573020E-001 0.000000000000000E+000
 0.793069391389776E+000 0.125000000000000E+000 0.000000000000000E+000
 0.695513657869308E+000 0.162768437982326E+000 0.000000000000000E+000
 0.687500000000000E+000 0.250000000000000E+000 0.000000000000000E+000
 0.875000000000000E+000 0.500000000000000E+000 0.000000000000000E+000
 0.727921748554044E+000 0.101601148842529E+000 0.000000000000000E+000
 0.759582972952604E+000 0.183381972603444E+000 0.000000000000000E+000
 0.875000000000000E+000 0.375000000000000E+000 0.000000000000000E+000
 0.718750000000000E+000 0.343750000000000E+000 0.000000000000000E+000
 0.697916666666667E+000 0.437500000000000E+000 0.000000000000000E+000
 0.750000000000000E+000 0.572048611111111E+000 0.000000000000000E+000
 0.787123226950355E+000 0.408133865248227E+000 0.000000000000000E+000
 0.804687500000000E+000 0.320312500000000E+000 0.000000000000000E+000
 0.700214460784314E+000 0.513965482026144E+000 0.000000000000000E+000
 0.783021635712153E+000 0.493366127722916E+000 0.000000000000000E+000
 0.625000000000000E+000 0.625000000000000E+000 0.000000000000000E+000
 0.848380638879200E+000 0.437500000000000E+000 0.000000000000000E+000
 0.562500000000000E+000 0.404604515401992E-001 0.000000000000000E+000
 0.875000000000000E+000 0.625000000000000E+000 0.000000000000000E+000
 0.750000000000000E+000 0.750000000000000E+000 0.000000000000000E+000
 0.697046765904942E+000 0.621060933265583E+000 0.000000000000000E+000
 0.200520833333333E+000 0.494791666666667E+000 0.000000000000000E+000
 0.429642360217793E+000 0.800955091165693E+000 0.000000000000000E+000
 0.453073336954457E+000 0.687500000000000E+000 0.000000000000000E+000
 0.548183885155829E+000 0.693587592964698E+000 0.000000000000000E+000
 0.750000000000000E+000 0.100000000000000E+001 0.000000000000000E+000
 0.573843760532799E+000 0.437500000000000E+000 0.000000000000000E+000
 0.500000000000000E+000 0.550126792242997E+000 0.000000000000000E+000
 0.511972906944656E+000 0.477455600833011E+000 0.000000000000000E+000
 0.437507615834863E+000 0.452402202857321E+000 0.000000000000000E+000
 0.546458141439317E+000 0.614345103225503E+000 0.000000000000000E+000
 0.571440414895569E+000 0.547357897962524E+000 0.000000000000000E+000
 0.450991397292447E+000 0.610087136082382E+000 0.000000000000000E+000
 0.875000000000000E+000 0.000000000000000E+000 0.000000000000000E+000
 0.100000000000000E+001 0.250000000000000E+000 0.000000000000000E+000
 0.100000000000000E+001 0.375000000000000E+000 0.000000000000000E+000
 0.687500000000000E+000 0.700324699898860E+000 0.000000000000000E+000
 0.812500000000000E+000 0.687500000000000E+000 0.000000000000000E+000
 0.804621866531165E+000 0.617121866531165E+000 0.000000000000000E+000
 0.825181931429427E+000 0.549770415540467E+000 0.000000000000000E+000
 0.100000000000000E+001 0.625000000000000E+000 0.000000000000000E+000
 0.100000000000000E+001 0.750000000000000E+000 0.000000000000000E+000
[...]
CELL_DATA         1212
SCALARS tdens double 1
LOOKUP_TABLE default
 0.120444373927608E-002
 0.657315402703311E-003
 0.781586177922588E-003
 0.789956772774290E-003
 0.372545011292365E-002
 0.594262996094971E-002
 0.344345573717433E-002
 0.393962648618522E-002
 0.251744635661050E+000
 0.101447323999221E+000
 0.131519561402133E+000
 0.241365672058383E+000
 0.513554620769195E-003
 0.516589950346222E-003
 0.420214591261611E-003
 0.457515211173940E-003
 0.657228531297161E-003
 0.120313125082408E-002
 0.781791866171813E-003
 0.790570786851795E-003
 0.707123008685474E-003
 0.993995542380306E-003
 0.996643964224149E-003
 0.871532165680503E-003
 0.161215542177949E-002
 0.118419143239297E-002
 0.124973550382277E-002
 0.133298637597692E-002
 0.176967533266085E-001
 0.101930035429525E-001
 0.579521615693204E-002
 0.102968614099266E-001
 0.647167966457341E-001
 0.274029730727655E+000
 0.811199575159214E-001
 0.749054738819928E-001
 0.364484102258933E-003
 0.324769952755421E-003
 0.350759453645170E-003
 0.341578557073736E-003
 0.650438089728123E-002
 0.403198268193862E-002
 0.572423541371201E-002
 0.551692418189864E-002
 0.886321373148486E-003
 0.104864992298659E-002
 0.114874208957656E-002
 0.102149089760314E-002
 0.387540337851589E-002
 0.371127436128164E-002
 0.125030148444326E-002
 0.239245324741157E-002
 0.590844741254837E+000
 0.371754967263680E+000
 0.428928092347063E+000
 0.398778596368661E+000
 0.224571256793781E-002
 0.218060751658707E-002
 0.238274332266849E-002
 0.225664675854565E-002
 0.416665260271022E+000
 0.332688098904275E+000
 0.654566730087528E+000
 0.343610025561997E+000
 0.443116440074407E-003
 0.372068518734940E-003
 0.385056690828947E-003
 0.398426302493658E-003
 0.462950430410653E-003
 0.505164860259040E-003
 0.550129010440590E-003
 0.508597532462130E-003
 0.462095508142986E-003
 0.454758712712604E-003
 0.369980997328061E-003
 0.406311667855189E-003
 0.585233301826753E+000
 0.517222611456669E+000
 0.274447000140868E+000
 0.627090450727381E+000
 0.510073760216267E-002
 0.209364007554125E-002
 0.520811218986149E-002
 0.356546262505190E-002
 0.382593611055766E-003
 0.350992838902409E-003
 0.324807807131796E-003
 0.341406808812225E-003
 0.177459539390446E-001
 0.806258684600507E-001
 0.423245738230227E-001
 0.334295255914939E-001
 0.672274913243811E-003
 0.588781810049944E-003
 0.629971797586362E-003
 0.636849141496397E-003
 0.442940347372359E-003
 0.373022780903393E-003
 0.385881747701823E-003
 0.399573106481308E-003
 0.138518463668907E-002
 0.158377326778238E-002
 0.235238069260889E-002
 0.169079675864281E-002
 0.615396052621374E-003
 0.561144295216083E-003
 0.681633975312307E-003
 0.607639499483402E-003
 0.268282502838230E-001
 0.113947075277208E+000
 0.826605673217662E-001
 0.831711011050480E-001
 0.155463696957015E-002
 0.633654268926569E-003
 0.688710638911846E-003
 0.792491182470292E-003
 0.526882871057470E-002
 0.182923074662391E-001
 0.827207834834960E-002
 0.751097321192539E-002
 0.107997826244573E-002
 0.708067899957318E-003
 0.808458567184557E-003
 0.849307015503046E-003
 0.112626755006199E-002
 0.631150693623292E-003
 0.611276070855703E-003
 0.723314804548514E-003
 0.528447880696329E-002
 0.498484095391648E-001
 0.644699846063102E-002
 0.269983256303189E-001
 0.302896864320118E-002
 0.195796800474872E-002
 0.385106293514153E-002
 0.292099019906748E-002
 0.422315781709523E-002
 0.712919294492571E-002
 0.405189622025303E-002
 0.459523976650841E-002
 0.641705704431113E-003
 0.743465120415488E-003
 0.931052704923366E-003
 0.764972135072815E-003
 0.484038519932012E-003
 0.358129864106222E-003
 0.429801552710786E-003
 0.410984084114784E-003
 0.143111889866644E-002
 0.951169509900352E-003
 0.212199971706969E-002
 0.133227213126075E-002
 0.867061264387766E-003
 0.118851237170691E-002
 0.111358904083007E-002
 0.103256304186777E-002
 0.365464336803813E-003
 0.325077328598457E-003
 0.352326165850819E-003
 0.342405437782151E-003
 0.444860767268077E-003
 0.385810453491428E-003
 0.373448698194432E-003
 0.399950260262961E-003
 0.431182029951841E-003
 0.463263616354561E-003
 0.370998718336562E-003
 0.404937373181179E-003
 0.232965610653822E+000
 0.101696510381359E+000
 0.102773337955855E+000
 0.251866871334135E+000
 0.439734186633057E+000
 0.370026980508249E+000
 0.628752826008709E+000
 0.426952708065642E+000
 0.171816892594497E+000
 0.523521396553552E-001
 0.115532799820001E+000
 0.455869277306618E-001
 0.237724988727482E-002
 0.259904539982755E-002
 0.288817630591719E-002
 0.260521627397914E-002
 0.214521891369238E-002
 0.951722124936257E-003
 0.148361433525232E-002
 0.135415450171125E-002
 0.798992755673172E-003
 0.712777015534920E-003
 0.110179748538699E-002
 0.847638924982366E-003
 0.630103757476959E-003
 0.588475133072533E-003
 0.672101433423019E-003
 0.636676952493496E-003
 0.193820132549882E-002
 0.259547337537138E-002
 0.162063173116371E-002
 0.196754293836442E-002
 0.681105235999332E-003
 0.560755521199585E-003
 0.614968954939308E-003
 0.607213439752232E-003
 0.119987818542416E-002
 0.159249382911592E-002
 0.133522718370623E-002
 0.136800474491546E-002
 0.486539576445458E-003
 0.549748229224978E-003
 0.648380285261960E-003
 0.565228620121991E-003
 0.420950417693220E-003
 0.461606729298829E-003
 0.353378489053322E-003
 0.396943408936511E-003
 0.663695016041996E-003
 0.932864438181935E-003
 0.766355211892671E-003
 0.772695612883979E-003
 0.933533935724752E-003
 0.123639080992390E-002
 0.128656006800757E-002
 0.112642600818702E-002
 0.221221004633689E-002
 0.258971633021313E-002
 0.243769920324925E-002
 0.241284851781127E-002
 0.219709404397543E-002
 0.343145506730521E-002
 0.440174250789304E-002
 0.326168750352601E-002
 0.309722541184286E-001
 0.128611162778430E-001
 0.121137497255906E-001
 0.134322295680697E-001
 0.164855434968536E-001
 0.291017215121382E-001
 0.328277598008773E-001
 0.275588278798938E-001
 0.100222377201348E-001
 0.177950738432947E-001
 0.664312476738637E-002
 0.104894976544612E-001
 0.602745639953366E-003
 0.507616950842504E-003
 0.676832514491529E-003
 0.579930942733276E-003
 0.284963043260764E-001
 0.143257340199809E-001
 0.102286805199307E-001
 0.155380860815675E-001
 0.701508482567324E-002
 0.185720747808789E-001
 0.120547157625423E-001
 0.113679274266889E-001
 0.131125586761962E-002
 0.167049212866190E-002
 0.165367780957483E-002
 0.152740757217800E-002
 0.326964021370129E-002
 0.230654168168000E-002
 0.367513835234781E-002
 0.307249051210904E-002
 0.190790531989326E-002
 0.208696465859142E-002
 0.220984325904865E-002
 0.202344989381937E-002
 0.899872519032571E-001
 0.105120277337192E+000
 0.232563385037441E+000
 0.840164850373720E-001
 0.148228445021932E-001
 0.525089675654676E-002
 0.105857270944460E-001
 0.111584758862984E-001
 0.529445415069185E-002
 0.899157866776630E-002
 0.467178376466410E-002
 0.566973256818222E-002
 0.652650245197578E-002
 0.674589651390681E-002
 0.370169650111131E-002
 0.594731193812206E-002
 0.154400941262516E-002
 0.166196624623409E-002
 0.129827831244957E-002
 0.149763705398787E-002
 0.356523506759726E-002
 0.671159859779176E-002
 0.481931695074304E-002
 0.467019276437135E-002
 0.127353353424504E-001
 0.292571421798152E-001
 0.312072859446414E-001
 0.286106701029551E-001
 0.259375316192883E-002
 0.349933431990305E-002
 0.227116228693138E-002
 0.264542560125266E-002
 0.461986589591428E-003
 0.421440850647582E-003
 0.353535196799439E-003
 0.397248440843360E-003
 0.182639406116441E-002
 0.218014151524968E-002
 0.191256169702289E-002
 0.195264198669417E-002
 0.301654213532724E-002
 0.373004191211855E-002
 0.275429532886514E-002
 0.307792493525899E-002
 0.194244848432777E-002
 0.211305565567199E-002
 0.207847420675830E-002
 0.205761664241032E-002
 0.216853701063244E-002
 0.247629972880925E-002
 0.217986015917018E-002
 0.224697440966327E-002
 0.438123050736260E-003
 0.552643290754311E-003
 0.527173098350777E-003
 0.495625978660630E-003
 0.510700535153761E-003
 0.420745529381128E-003
 0.516288814779706E-003
 0.457090371942372E-003
 0.153995702573552E-002
 0.687786059168747E-003
 0.631741751713739E-003
 0.787191537953251E-003
 0.469764539641517E-002
 0.463276174254438E-002
 0.193815904211366E-002
 0.328651625936561E-002
 0.236905403554156E-002
 0.192627458980304E-002
 0.147719379833128E-002
 0.188372351213005E-002
 0.797951958726188E-003
 0.107280063724792E-002
 0.710775750935494E-003
 0.840051873991878E-003
 0.317776696846829E+000
 0.220180082957943E+000
 0.250106983184143E+000
 0.271761807293698E+000
 0.126649277663524E-002
 0.164276576307427E-002
 0.144945089424315E-002
 0.140184965379614E-002
 0.483383655657328E-003
 0.626142345314222E-003
 0.547262968269883E-003
 0.555393748501963E-003
 0.103488144331804E-002
 0.766674790342574E-003
 0.696245727197392E-003
 0.821599765315891E-003
 0.551769706977184E-003
 0.437071760709795E-003
 0.526656963908333E-003
 0.494502436195736E-003
 0.112999120588261E-002
 0.610844003289214E-003
 0.631675915595640E-003
 0.723996747492916E-003
 0.157131610865831E+000
 0.103354013645450E+000
 0.124078004571546E+000
 0.138118587006039E+000
 0.688378477076969E-002
 0.571700204791300E-001
 0.657045857531389E-002
 0.346491184725665E-001
 0.131080767616040E-001
 0.297021846075464E-001
 0.277573264380205E-001
 0.249457621153796E-001
 0.327538960892694E-002
 0.230432338994917E-002
 0.305086567266168E-002
 0.284830152758769E-002
 0.885413325965534E-002
 0.483698482260704E-002
 0.138476840174841E-001
 0.952834573453883E-002
 0.463474872717855E-002
 0.876667284940266E-002
 0.113822781117594E-001
 0.814828063657994E-002
 0.215556374792217E-002
 0.233635608100730E-002
 0.192656456290222E-002
 0.216058645212920E-002
 0.440403183040919E-002
 0.411593968107580E-002
 0.720885413924668E-002
 0.477080560020411E-002
 0.234084095338663E-002
 0.221919708546116E-002
 0.304677024386901E-002
 0.244672812095436E-002
 0.245934758158035E-002
 0.313997864853482E-002
 0.264128669333346E-002
 0.270826965291809E-002
 0.198793373612910E-002
 0.159059989747594E-002
 0.184177411355147E-002
 0.180503772379350E-002
 0.163112725643114E-002
 0.196376765713926E-002
 0.179866935027276E-002
 0.175224976548192E-002
 0.139939789963151E-001
 0.272028499060750E-001
 0.919951461262525E-002
 0.144127873467376E-001
 0.491441516490019E-002
 0.739621433601017E-002
 0.171934579132634E-001
 0.679933863669048E-002
 0.184344574491558E-001
 0.597526071867710E-002
 0.984833844927484E-002
 0.954465718536459E-002
 0.253145548721485E-002
 0.331132179916876E-002
 0.330905280654240E-002
 0.308253732183034E-002
 0.176281126830146E-002
 0.156059222439919E-002
 0.264510261940926E-002
 0.190225652079302E-002
 0.439043443759399E+000
 0.305792489298428E+000
 0.130411180987083E+000
 0.499714851089906E+000
 0.176810601931535E-001
 0.404811250073525E-001
 0.797628753351559E-001
 0.332267227281450E-001
 0.174789133154086E-002
 0.210716556029519E-002
 0.180287450520585E-002
 0.187242487554561E-002
 0.425509629435431E+000
 0.423303292651329E+000
 0.585259225799824E+000
 0.451247898618656E+000
 0.398268089561457E-001
 0.895844515032173E-001
 0.972752633991259E-001
 0.561165056787762E-001
 0.622907894835438E-001
 0.216703753805280E+000
 0.111418466716880E+000
 0.161822616795922E+000
 0.226897753097306E+000
 0.163297999844165E+000
 0.308903289660229E+000
 0.193544036056736E+000
 0.296704365322298E-002
 0.467607016627412E-002
 0.346481602749832E-002
 0.353861303435768E-002
 0.325003512476033E-003
 0.365502448623737E-003
 0.352205933273689E-003
 0.342286317379871E-003
 0.384167499690725E-003
 0.324785975097816E-003
 0.350396664942927E-003
 0.341173462262405E-003
 0.117913441022537E+000
 0.223105852942348E+000
 0.733827676981917E-001
 0.169045349105355E+000
 0.651163967877475E-003
 0.504052737357006E-003
 0.597778461264750E-003
 0.569773941875577E-003
 0.257081668093120E+000
 0.306964599291147E+000
 0.432485520714398E+000
 0.422926112341739E+000
 0.402351209785769E-001
 0.105328958353056E+000
 0.846257452224473E-001
 0.578946978078749E-001
 0.525554210648565E-002
 0.652563467736013E-002
 0.479687438574447E-001
 0.268733911006536E-001
 0.649134668914409E-002
 0.492097813348582E-001
 0.640201520881664E-002
 0.317755141305061E-001
 0.431983368463812E+000
 0.422081136793186E+000
 0.415658421246056E+000
 0.413464573931452E+000
 0.302253084748231E+000
 0.384156433596296E+000
 0.384187077570311E+000
 0.331933441689690E+000
 0.342005435275351E+000
 0.172110793988554E+000
 0.161195357889777E+000
 0.217774306137078E+000
 0.209961887551515E+000
 0.335853799723679E+000
 0.403385263733412E+000
 0.276658775744709E+000
 0.216036642097684E+000
 0.102223204686369E+000
 0.268257466583923E+000
 0.193418724571797E+000
 0.126048035027511E+000
 0.201113316984708E+000
 0.178118486022314E+000
 0.173954092111230E+000
 0.237725933047647E+000
 0.219290473688314E+000
 0.302249888219840E+000
 0.268849721062935E+000
 0.428563645339121E+000
 0.630480693939597E+000
 0.432715834634760E+000
 0.480785326082014E+000
 0.532265133254479E+000
 0.410943306092802E+000
 0.715665196897157E+000
 0.581851079163355E+000
 0.422736380947070E+000
 0.173708814578799E+000
 0.285348633259544E+000
 0.309920709867389E+000
 0.663366471630468E-001
 0.271998718752438E+000
 0.966458519960690E-001
 0.627879944425782E-001
 0.261188963491414E+000
 0.169723690462550E+000
 0.486172038013113E+000
 0.257769750145855E+000
 0.150939818500802E-001
 0.114862291289326E-001
 0.299147808127663E-001
 0.140089631783600E-001
 0.504738331320768E-003
 0.462387029872913E-003
 0.549739581651168E-003
 0.508116844429888E-003
 0.357961079114902E-003
 0.482320754027704E-003
 0.429409532569479E-003
 0.410612072677850E-003
 0.275289766145661E+000
 0.355371180235153E+000
 0.364770195025927E+000
 0.323808596933003E+000
 0.343601897469218E+000
 0.359411282172023E+000
 0.263391339055051E+000
 0.321974030272555E+000
 0.122744016558654E+000
 0.296800959850242E+000
 0.748357899391008E-001
 0.941896489029695E-001
 0.437944241116800E+000
 0.623363305600917E+000
 0.420275008431959E+000
 0.498961669327619E+000
 0.497617945326325E-001
 0.545575955151555E-001
 0.113539735287152E+000
 0.588862892024310E-001
 0.507726862546604E+000
 0.171527479278136E+000
 0.172885816622182E+000
 0.180407507078083E+000
 0.578336886273506E+000
 0.336251110270292E+000
 0.729420120023111E+000
 0.743961504663292E+000
 0.126021411729016E+000
 0.284380022530644E-001
 0.218939843851720E-001
 0.278876753775106E-001
 0.524563690351687E+000
 0.184319903193457E+000
 0.295152676056662E+000
 0.275295218836687E+000
 0.346582562938387E-001
 0.284210434090989E-001
 0.134885608811049E-001
 0.283544995367512E-001
 0.906693700224077E-002
 0.258034911927486E-001
 0.109859858724430E-001
 0.114411545108414E-001
 0.222573188046057E+000
 0.206620721582643E+000
 0.948962019433388E-001
 0.229022146447040E+000
 0.503749820009938E+000
 0.762407579665124E+000
 0.708905355431237E+000
 0.711593762059876E+000
 0.143542858983419E+000
 0.111904942411195E+000
 0.533473656097225E+000
 0.118296975459440E+000
 0.491721594283841E+000
 0.441373484508705E+000
 0.605264747742322E+000
 0.500866181726572E+000
 0.640237434500399E+000
 0.443977798768041E+000
 0.493090089575382E+000
 0.476757176375600E+000
 0.167479898875876E+000
 0.534941055393253E+000
 0.295019370920451E+000
 0.293367584908509E+000
 0.459809221465333E+000
 0.600737633306317E+000
 0.765642846016917E+000
 0.676185555528637E+000
 0.246839053829888E+000
 0.950417647585644E-001
 0.916451517983107E-001
 0.902023087632868E-001
 0.108410862253776E+000
 0.930796053988101E-001
 0.236465927723108E+000
 0.891740525124332E-001
 0.213414177492492E+000
 0.225953400092631E+000
 0.899087368224202E-001
 0.229097092349876E+000
 0.408248566170454E+000
 0.464483138295745E+000
 0.823060598748523E+000
 0.390680088056924E+000
 0.914653123720332E-003
 0.788940065468939E-003
 0.123319196396107E-002
 0.949695524128689E-003
 0.302248784035563E-002
 0.418787246408967E-002
 0.489799106827456E-002
 0.394633616894394E-002
 0.223312670840068E-002
 0.281498319218219E-002
 0.266770503948670E-002
 0.255855265948125E-002
 0.268313302747453E-002
 0.219125354332599E-002
 0.226485242634228E-002
 0.233508090145122E-002
 0.195602024675920E-001
 0.182744817403362E-001
 0.697982795265436E-002
 0.176923391060928E-001
 0.643635191558119E-002
 0.186966718128447E-001
 0.782238234408473E-002
 0.839860672733142E-002
 0.252470492455635E-002
 0.287108326616510E-002
 0.232031904550211E-002
 0.255616671896008E-002
 0.937068943605558E-002
 0.241976416598455E-001
 0.271416222707860E-001
 0.227297744821136E-001
 0.111613512565158E-002
 0.102149632036424E-002
 0.146337177816798E-002
 0.118415696585541E-002
 0.264884952195882E+000
 0.156177742787325E+000
 0.150598741192210E+000
 0.212804228451678E+000
 0.227311933509556E-002
 0.335026642886702E-002
 0.257674947732197E-002
 0.266690157967319E-002
 0.387657277172527E-003
 0.567524380350325E-003
 0.571083931994568E-003
 0.476921542562896E-003
 0.250346416723619E-001
 0.691774918337191E-002
 0.135114135011440E-001
 0.111571057028396E-001
 0.193585969343022E-002
 0.221872212122487E-002
 0.175614823578230E-002
 0.196364762831820E-002
 0.361693896592486E-002
 0.364405368358705E-002
 0.238226115958968E-002
 0.324816406045292E-002
 0.660713328396459E-002
 0.192438167140195E-001
 0.613904511135513E-002
 0.711481976623693E-002
 0.698197817462321E-002
 0.562406378195907E-001
 0.604229978676702E-002
 0.319059381863029E-001
 0.332413305558047E+000
 0.595527811095275E+000
 0.420951485652642E+000
 0.521859107598281E+000
 0.578681513659650E-001
 0.128561345628764E+000
 0.215449405413461E+000
 0.188845674845728E+000
 0.126276391126022E-002
 0.161972370812602E-002
 0.153912124455874E-002
 0.140829198059075E-002
 0.314426587968174E-002
 0.210307468319671E-002
 0.194889844751196E-002
 0.227659045091960E-002
 0.325812581478542E-002
 0.190411451930421E-002
 0.186086973482269E-002
 0.220773882169412E-002
 0.225046591600899E-001
 0.774065485309029E-002
 0.221963987292598E-001
 0.198267229484675E-001
 0.280976279252648E+000
 0.336632381023388E+000
 0.293111668410782E+000
 0.350666539572701E+000
 0.429171598521152E+000
 0.868919380473436E-001
 0.284999373161546E+000
 0.418662989005987E+000
 0.308789053709945E+000
 0.344206812042251E+000
 0.217737970143704E+000
 0.252328973912367E+000
 0.324308742176574E-003
 0.366915751727904E-003
 0.348366025697388E-003
 0.339570622010708E-003
 0.630952707695117E-003
 0.723693017934827E-003
 0.160874148100024E-002
 0.787585202657977E-003
 0.283118002728779E+000
 0.296871467384990E+000
 0.197728700329841E+000
 0.190866980700948E+000
 0.217106096250320E+000
 0.154567054896539E+000
 0.188238926028569E+000
 0.168020497694384E+000
 0.660285545342544E-001
 0.110092273133419E+000
 0.340482860912528E-001
 0.584184933349636E-001
 0.122811949111499E-001
 0.228085494899612E-001
 0.664969020566505E-001
 0.615373411371997E-001
 0.221685131064503E+000
 0.156312328938427E+000
 0.191524406977944E+000
 0.203810101327445E+000
 0.193316518358388E-001
 0.100566929049882E+000
 0.417060610871240E-001
 0.349738259907500E-001
 0.123444715128708E+000
 0.106032690274001E+000
 0.388740726651919E-001
 0.621218502680784E-001
 0.121508516015345E+000
 0.212859482165349E+000
 0.129471062314165E+000
 0.212927727364299E+000
 0.263868423626175E+000
 0.250432009712130E+000
 0.385118617491627E+000
 0.288318621969867E+000
 0.709703018425566E-001
 0.117191839759561E+000
 0.121463643302171E+000
 0.835279808490622E-001
 0.243773000035131E-001
 0.848778656645879E-001
 0.645013388370853E-001
 0.427449645207304E-001
 0.176128594773633E-002
 0.301544453161164E-002
 0.118091947139579E-002
 0.187551719267475E-002
 0.125958063017832E+000
 0.111911573184866E+000
 0.318680345673133E-001
 0.131774285343419E+000
 0.335620194830551E-002
 0.327550907843175E-002
 0.185658311696090E-001
 0.903737103340428E-002
 0.726055434480161E-001
 0.255013397788265E-001
 0.139296787964920E-001
 0.604617571151533E-001
 0.212071700146691E-002
 0.195017914680468E-002
 0.211739409048565E-002
 0.207029827185256E-002
 0.220862576111183E-002
 0.213329543291785E-002
 0.191305907508763E-002
 0.204964455317447E-002
 0.849163348532482E-001
 0.832946748989412E-001