# vtk DataFile Version 3.0
Unstructured Grid
ASCII
DATASET UNSTRUCTURED_GRID
FIELD FieldData 1
TIME 1 1 float
  0.403125E+02
POINTS          640 double
 0.000000000000000E+000 0.000000000000000E+000 0.000000000000000E+000
 0.100000000000000E+001 0.000000000000000E+000 0.000000000000000E+000
 0.100000000000000E+001 0.100000000000000E+001 0.000000000000000E+000
 0.000000000000000E+000 0.100000000000000E+001 0.000000000000000E+000
 0.125000000000000E+000 0.250000000000000E+000 0.000000000000000E+000
 0.375000000000000E+000 0.250000000000000E+000 0.000000000000000E+000
 0.375000000000000E+000 0.750000000000000E+000 0.000000000000000E+000
 0.125000000000000E+000 0.750000000000000E+000 0.000000000000000E+000
 0.625000000000000E+000 0.250000000000000E+000 0.000000000000000E+000
 0.875000000000000E+000 0.250000000000000E+000 0.000000000000000E+000
 0.875000000000000E+000 0.750000000000000E+000 0.000000000000000E+000
 0.625000000000000E+000 0.750000000000000E+000 0.000000000000000E+000
 0.100000000000000E+001 0.500000000000000E+000 0.000000000000000E+000
 0.000000000000000E+000 0.500000000000000E+000 0.000000000000000E+000
 0.500000000000000E+000 0.000000000000000E+000 0.000000000000000E+000
 0.125000000000000E+000 0.500000000000000E+000 0.000000000000000E+000
 0.000000000000000E+000 0.750000000000000E+000 0.000000000000000E+000
 0.000000000000000E+000 0.250000000000000E+000 0.000000000000000E+000
 0.000000000000000E+000 0.875000000000000E+000 0.000000000000000E+000
 0.000000000000000E+000 0.125000000000000E+000 0.000000000000000E+000
 0.625000000000000E-001 0.812500000000000E+000 0.000000000000000E+000
 0.125000000000000E+000 0.375000000000000E+000 0.000000000000000E+000
 0.125000000000000E+000 0.625000000000000E+000 0.000000000000000E+000
 0.500000000000000E+000 0.100000000000000E+001 0.000000000000000E+000
 0.250000000000000E+000 0.100000000000000E+001 0.000000000000000E+000
 0.125000000000000E+000 0.100000000000000E+001 0.000000000000000E+000
 0.729166666666667E-001 0.885416666666667E+000 0.000000000000000E+000
 0.000000000000000E+000 0.625000000000000E+000 0.000000000000000E+000
 0.625000000000000E-001 0.562500000000000E+000 0.000000000000000E+000
 0.375000000000000E+000 0.500000000000000E+000 0.000000000000000E+000
 0.375000000000000E+000 0.100000000000000E+001 0.000000000000000E+000
 0.250000000000000E+000 0.000000000000000E+000 0.000000000000000E+000
 0.625000000000000E-001 0.187500000000000E+000 0.000000000000000E+000
 0.143518518518519E+000 0.775462962962963E-001 0.000000000000000E+000
 0.156250000000000E+000 0.156250000000000E+000 0.000000000000000E+000
 0.729166666666667E-001 0.114583333333333E+000 0.000000000000000E+000
 0.125000000000000E+000 0.000000000000000E+000 0.000000000000000E+000
 0.250000000000000E+000 0.250000000000000E+000 0.000000000000000E+000
 0.375000000000000E+000 0.000000000000000E+000 0.000000000000000E+000
 0.187500000000000E+000 0.218750000000000E+000 0.000000000000000E+000
 0.312500000000000E+000 0.762453007518797E-001 0.000000000000000E+000
 0.270259392278489E+000 0.159169301283415E+000 0.000000000000000E+000
 0.365310977506407E+000 0.155367112827996E+000 0.000000000000000E+000
 0.312500000000000E+000 0.216265619131990E+000 0.000000000000000E+000
 0.500000000000000E+000 0.189389379011873E+000 0.000000000000000E+000
 0.426456487258648E+000 0.196919158251449E+000 0.000000000000000E+000
 0.451620395371675E+000 0.941243892751461E-001 0.000000000000000E+000
 0.381804756165356E+000 0.871724813114945E-001 0.000000000000000E+000
 0.437500000000000E+000 0.273708879364394E-001 0.000000000000000E+000
 0.000000000000000E+000 0.375000000000000E+000 0.000000000000000E+000
 0.625000000000000E-001 0.312500000000000E+000 0.000000000000000E+000
 0.250000000000000E+000 0.750000000000000E+000 0.000000000000000E+000
 0.158482142857143E+000 0.851934523809524E+000 0.000000000000000E+000
 0.210861885404568E+000 0.921875000000000E+000 0.000000000000000E+000
 0.136017278952732E+000 0.925863358051789E+000 0.000000000000000E+000
 0.625000000000000E-001 0.687500000000000E+000 0.000000000000000E+000
 0.250000000000000E+000 0.437500000000000E+000 0.000000000000000E+000
 0.247528011619582E+000 0.839830719156545E+000 0.000000000000000E+000
 0.312500000000000E+000 0.796669265575374E+000 0.000000000000000E+000
 0.419664368355990E+000 0.875000000000000E+000 0.000000000000000E+000
 0.313183356674252E+000 0.918387829019328E+000 0.000000000000000E+000
 0.312500000000000E+000 0.100000000000000E+001 0.000000000000000E+000
 0.380617553087688E+000 0.931527612480385E+000 0.000000000000000E+000
 0.187500000000000E+000 0.785936956899548E+000 0.000000000000000E+000
 0.350379273974835E+000 0.857317802397078E+000 0.000000000000000E+000
 0.228046514569416E+000 0.817347524546315E-001 0.000000000000000E+000
 0.187500000000000E+000 0.312500000000000E+000 0.000000000000000E+000
 0.625000000000000E-001 0.437500000000000E+000 0.000000000000000E+000
 0.197916666666667E+000 0.385416666666667E+000 0.000000000000000E+000
 0.375000000000000E+000 0.375000000000000E+000 0.000000000000000E+000
 0.750000000000000E+000 0.000000000000000E+000 0.000000000000000E+000
 0.625000000000000E-001 0.959280303030303E+000 0.000000000000000E+000
 0.234375000000000E+000 0.562500000000000E+000 0.000000000000000E+000
 0.187500000000000E+000 0.687500000000000E+000 0.000000000000000E+000
 0.193892045454545E+000 0.618607954545455E+000 0.000000000000000E+000
 0.375000000000000E+000 0.625000000000000E+000 0.000000000000000E+000
 0.283775504647110E+000 0.640801989544002E+000 0.000000000000000E+000
 0.281298714846257E+000 0.504888901855782E+000 0.000000000000000E+000
 0.331282779604339E+000 0.562500000000000E+000 0.000000000000000E+000
 0.338845441361880E+000 0.687500000000000E+000 0.000000000000000E+000
 0.500000000000000E+000 0.775815254846569E+000 0.000000000000000E+000
 0.625000000000000E-001 0.407196969696970E-001 0.000000000000000E+000
 0.328125000000000E+000 0.437500000000000E+000 0.000000000000000E+000
 0.284143518518519E+000 0.340856481481482E+000 0.000000000000000E+000
 0.312500000000000E+000 0.278356481481482E+000 0.000000000000000E+000
 0.625000000000000E+000 0.500000000000000E+000 0.000000000000000E+000
 0.410581328448014E+000 0.312500000000000E+000 0.000000000000000E+000
 0.543730092976870E+000 0.258404709955172E+000 0.000000000000000E+000
 0.625000000000000E+000 0.375000000000000E+000 0.000000000000000E+000
 0.500000000000000E+000 0.404784409423024E+000 0.000000000000000E+000
 0.590394028376448E+000 0.312500000000000E+000 0.000000000000000E+000
 0.467392923590959E+000 0.261422480241605E+000 0.000000000000000E+000
 0.508234229043035E+000 0.327522431406248E+000 0.000000000000000E+000
 0.625000000000000E+000 0.000000000000000E+000 0.000000000000000E+000
 0.537311919648379E+000 0.110523699730938E+000 0.000000000000000E+000
 0.750000000000000E+000 0.250000000000000E+000 0.000000000000000E+000
 0.593146640296986E+000 0.172723366619635E+000 0.000000000000000E+000
 0.623771215502605E+000 0.890722450407200E-001 0.000000000000000E+000
 0.687500000000000E+000 0.454068088573020E-001 0.000000000000000E+000
 0.793069391389776E+000 0.125000000000000E+000 0.000000000000000E+000
 0.695513657869308E+000 0.162768437982326E+000 0.000000000000000E+000
 0.687500000000000E+000 0.250000000000000E+000 0.000000000000000E+000
 0.875000000000000E+000 0.500000000000000E+000 0.000000000000000E+000
 0.727921748554044E+000 0.101601148842529E+000 0.000000000000000E+000
 0.759582972952604E+000 0.183381972603444E+000 0.000000000000000E+000
 0.875000000000000E+000 0.375000000000000E+000 0.000000000000000E+000
 0.718750000000000E+000 0.343750000000000E+000 0.000000000000000E+000
 0.697916666666667E+000 0.437500000000000E+000 0.000000000000000E+000
 0.750000000000000E+000 0.572048611111111E+000 0.000000000000000E+000
 0.787123226950355E+000 0.408133865248227E+000 0.000000000000000E+000
 0.804687500000000E+000 0.320312500000000E+000 0.000000000000000E+000
 0.700214460784314E+000 0.513965482026144E+000 0.000000000000000E+000
 0.783021635712153E+000 0.493366127722916E+000 0.000000000000000E+000
 0.625000000000000E+000 0.625000000000000E+000 0.000000000000000E+000
 0.848380638879200E+000 0.437500000000000E+000 0.000000000000000E+000
 0.562500000000000E+000 0.404604515401992E-001 0.000000000000000E+000
 0.875000000000000E+000 0.625000000000000E+000 0.000000000000000E+000
 0.750000000000000E+000 0.750000000000000E+000 0.000000000000000E+000
 0.697046765904942E+000 0.621060933265583E+000 0.000000000000000E+000
 0.200520833333333E+000 0.494791666666667E+000 0.000000000000000E+000
 0.429642360217793E+000 0.800955091165693E+000 0.000000000000000E+000
 0.453073336954457E+000 0.687500000000000E+000 0.000000000000000E+000
 0.548183885155829E+000 0.693587592964698E+000 0.000000000000000E+000
 0.750000000000000E+000 0.100000000000000E+001 0.000000000000000E+000
 0.573843760532799E+000 0.437500000000000E+000 0.000000000000000E+000
 0.500000000000000E+000 0.550126792242997E+000 0.000000000000000E+000
 0.511972906944656E+000 0.477455600833011E+000 0.000000000000000E+000
 0.437507615834863E+000 0.452402202857321E+000 0.000000000000000E+000
 0.546458141439317E+000 0.614345103225503E+000 0.000000000000000E+000
 0.571440414895569E+000 0.547357897962524E+000 0.000000000000000E+000
 0.450991397292447E+000 0.610087136082382E+000 0.000000000000000E+000
 0.875000000000000E+000 0.000000000000000E+000 0.000000000000000E+000
 0.100000000000000E+001 0.250000000000000E+000 0.000000000000000E+000
 0.100000000000000E+001 0.375000000000000E+000 0.000000000000000E+000
 0.687500000000000E+000 0.700324699898860E+000 0.000000000000000E+000
 0.812500000000000E+000 0.687500000000000E+000 0.000000000000000E+000
 0.804621866531165E+000 0.617121866531165E+000 0.000000000000000E+000
 0.825181931429427E+000 0.549770415540467E+000 0.000000000000000E+000
 0.100000000000000E+001 0.625000000000000E+000 0.000000000000000E+000
 0.100000000000000E+001 0.750000000000000E+000 0.000000000000000E+000
[...]
CELL_DATA         1212
SCALARS tdens double 1
LOOKUP_TABLE default
 0.158790117208873E-006
 0.630488457137262E-007
 0.847077763755584E-007
 0.832487023862176E-007
 0.924439208348594E-006
 0.196894229562237E-005
 0.814337471633799E-006
 0.983333290880461E-006
 0.207915746754170E+000
 0.508876159293785E-001
 0.116114049652541E+000
 0.256986854984041E+000
 0.484918267754551E-007
 0.431437525871253E-007
 0.340258863708383E-007
 0.376536964226265E-007
 0.625795451825730E-007
 0.159375445807057E-006
 0.848541717603062E-007
 0.832544569217958E-007
 0.795786363095468E-007
 0.131087407957771E-006
 0.128298373441184E-006
 0.106650433974976E-006
 0.263035156961949E-006
 0.163647098604734E-006
 0.183561066516059E-006
 0.198687646820974E-006
 0.141466010965310E-004
 0.513943156107943E-005
 0.190436639833946E-005
 0.505919169700992E-005
 0.235224571621353E-001
 0.401954098779554E+000
 0.511176003965580E-002
 0.102440981538375E+000
 0.295842606924424E-007
 0.262632121125615E-007
 0.286066568041904E-007
 0.276579427365977E-007
 0.217859497329936E-005
 0.102720251192963E-005
 0.179343043940066E-005
 0.173640787667038E-005
 0.111152094408832E-006
 0.136785969529283E-006
 0.160624504947031E-006
 0.133747790364763E-006
 0.904368091369663E-006
 0.103985445755006E-005
 0.184910718117832E-006
 0.511476969837732E-006
 0.480917333956212E+000
 0.132986266109595E+000
 0.282347326868968E-001
 0.225362579505248E+000
 0.411081886246849E-006
 0.389750535177816E-006
 0.451375743335157E-006
 0.413352999033182E-006
 0.303020251760674E-001
 0.543979375729689E-001
 0.169493610835077E+001
 0.146338403452220E+000
 0.407743293305280E-007
 0.307852113995531E-007
 0.312417563218886E-007
 0.327701833170979E-007
 0.443267176517753E-007
 0.490125221678646E-007
 0.559332434975041E-007
 0.499111868951074E-007
 0.509965271317167E-007
 0.644685878895437E-007
 0.313314780432309E-007
 0.399030893146906E-007
 0.763808178789600E-001
 0.130259974353784E+000
 0.730643145077173E-002
 0.155736029115888E+000
 0.183511436253455E-005
 0.397611651116033E-006
 0.147128905605708E-005
 0.944258556978690E-006
 0.340650548682089E-007
 0.291037989384701E-007
 0.264465646609058E-007
 0.281877275544676E-007
 0.266430084314080E-001
 0.136698844003165E+000
 0.658872799418336E-002
 0.457985999556166E-001
 0.685272702217547E-007
 0.581081499529244E-007
 0.597103752244178E-007
 0.629633221426566E-007
 0.403068901945275E-007
 0.309974303328762E-007
 0.317040915931965E-007
 0.330264544725418E-007
 0.220420262135159E-006
 0.271565099398377E-006
 0.483500122699184E-006
 0.290963776926342E-006
 0.643306720467816E-007
 0.555437271229620E-007
 0.718556891304831E-007
 0.623102940669685E-007
 0.266665082934051E-001
 0.212836523834149E-001
 0.255095300670118E+000
 0.155739635856902E-001
 0.244694372884045E-006
 0.571395902045944E-007
 0.742304384584263E-007
 0.889253955977943E-007
 0.150596301920220E-005
 0.977452013331258E-005
 0.293082991892483E-005
 0.234848694897055E-005
 0.149080890963864E-006
 0.802834855810874E-007
 0.984404141440187E-007
 0.104171748287725E-006
 0.136106291096344E-006
 0.568793690892932E-007
 0.557297715007463E-007
 0.688216633449137E-007
 0.649835631049888E-002
 0.492773640278628E-001
 0.561182223274703E-002
 0.285422290837853E-001
 0.684176463358098E-006
 0.360105600879203E-006
 0.978791897158662E-006
 0.672525522130333E-006
 0.118290749283600E-005
 0.289020569542615E-005
 0.110400234252824E-005
 0.130234260929799E-005
 0.694041356442172E-007
 0.871436959470310E-007
 0.119887800084949E-006
 0.910380926514098E-007
 0.470344356139107E-007
 0.307129266742855E-007
 0.398919718327231E-007
 0.374012996241770E-007
 0.225451216819748E-006
 0.116698083839049E-006
 0.411977905500118E-006
 0.201074262217685E-006
 0.108820030112323E-006
 0.172394531430857E-006
 0.156842961201649E-006
 0.142526843912616E-006
 0.296585039539534E-007
 0.263641827487431E-007
 0.288096018047476E-007
 0.278730580359250E-007
 0.412009193734410E-007
 0.313396348907198E-007
 0.309521463004631E-007
 0.329414917566490E-007
 0.538403618719763E-007
 0.498004514321469E-007
 0.312799684886006E-007
 0.391370703733255E-007
 0.557093642138099E+000
 0.200715583410429E+000
 0.395243599071972E-001
 0.455048542129617E+000
 0.158254166609436E-001
 0.221232795557966E-001
 0.259554939673708E+001
 0.167602841442547E-001
 0.254907481226888E+000
 0.718661681649156E-001
 0.212075137917326E+000
 0.447734111295903E-001
 0.452966211979063E-006
 0.523073100782363E-006
 0.623538436976970E-006
 0.525396223574232E-006
 0.410201899909629E-006
 0.115715877896580E-006
 0.232937210984139E-006
 0.203586357309603E-006
 0.915708118217843E-007
 0.797254427099482E-007
 0.151947542098375E-006
 0.101304605739947E-006
 0.601630587540410E-007
 0.580471671652362E-007
 0.685561091113616E-007
 0.630807290275048E-007
 0.344613805644184E-006
 0.538457977611778E-006
 0.266372109780501E-006
 0.352461543217404E-006
 0.716041084314741E-007
 0.553727625562189E-007
 0.639931587214440E-007
 0.620816249433798E-007
 0.163937330021649E-006
 0.251633593850866E-006
 0.197413312494602E-006
 0.203150333357766E-006
 0.475707702811183E-007
 0.559884394841469E-007
 0.715661973275431E-007
 0.582394107189091E-007
 0.385484715587585E-007
 0.432220774140435E-007
 0.300889986338671E-007
 0.354782391619576E-007
 0.719167394931626E-007
 0.114897953990771E-006
 0.892621830453544E-007
 0.897959409286215E-007
 0.119642438532497E-006
 0.179519977274755E-006
 0.189799511446724E-006
 0.159420724376845E-006
 0.394749983458984E-006
 0.506790135028818E-006
 0.466568907179453E-006
 0.458353807204392E-006
 0.413601294079019E-006
 0.786374082560266E-006
 0.112816709359891E-005
 0.746505008397361E-006
 0.351969570404398E-004
 0.691069354012673E-005
 0.632183478459922E-005
 0.705164190823574E-005
 0.858194728726343E-005
 0.237828696252718E-004
 0.279623212582950E-004
 0.250120256389261E-004
 0.466472572373888E-005
 0.131268986199922E-004
 0.235018434743616E-005
 0.501238246056614E-005
 0.636209810766403E-007
 0.502472967415436E-007
 0.754481819293333E-007
 0.610275654183313E-007
 0.205031369979592E-004
 0.140006471252578E-004
 0.439839350136249E-005
 0.916610998248972E-005
 0.253472046207321E-005
 0.128519162095553E-004
 0.573375746283612E-005
 0.564984617186337E-005
 0.184812164887105E-006
 0.260249339496241E-006
 0.263656871177231E-006
 0.230502305659106E-006
 0.747937182119955E-006
 0.442434707331365E-006
 0.889068286657300E-006
 0.695407067495977E-006
 0.315038384285824E-006
 0.360757687180414E-006
 0.401331268076780E-006
 0.346393258509338E-006
 0.570215124754387E-003
 0.139144124382668E-002
 0.107144816994072E-001
 0.758250216232947E-003
 0.605637497117298E-005
 0.142981622054949E-005
 0.441434740485617E-005
 0.484119932224427E-005
 0.162615871577929E-005
 0.377329315783884E-005
 0.129958483340923E-005
 0.171542748566928E-005
 0.218758287396359E-005
 0.231122101290849E-005
 0.890505409237463E-006
 0.198144367705166E-005
 0.235103144832106E-006
 0.257650841838483E-006
 0.181829543676422E-006
 0.223121336856442E-006
 0.863971474308064E-006
 0.241015788172588E-005
 0.142070848344438E-005
 0.132829908672168E-005
 0.656065088252322E-005
 0.305536620914036E-004
 0.339817561770854E-004
 0.307110882956541E-004
 0.526757850902012E-006
 0.844756439451947E-006
 0.432872041689784E-006
 0.541733012099097E-006
 0.433853713940721E-007
 0.387283840842289E-007
 0.301481731004234E-007
 0.356002494560192E-007
 0.296836102348227E-006
 0.397105943532689E-006
 0.328504785728672E-006
 0.334700042377774E-006
 0.658774799292659E-006
 0.928763819096758E-006
 0.572410363857392E-006
 0.676682000049665E-006
 0.321314514965474E-006
 0.362769858575652E-006
 0.356006073979151E-006
 0.349640965474510E-006
 0.378731425648999E-006
 0.475145420342456E-006
 0.384537213279259E-006
 0.400671729318539E-006
 0.362185312182462E-007
 0.483674559442187E-007
 0.447362760201402E-007
 0.416710956214065E-007
 0.458618142260825E-007
 0.345319820858748E-007
 0.426573338336656E-007
 0.375514433611755E-007
 0.227663527983048E-006
 0.740470517859472E-007
 0.548996814419138E-007
 0.830040299553251E-007
 0.161544583348553E-005
 0.129051743297876E-005
 0.360006982165660E-006
 0.847017697203098E-006
 0.480914657104976E-006
 0.348033718602996E-006
 0.236903648371702E-006
 0.342590537398689E-006
 0.919216837644540E-007
 0.148019322506495E-006
 0.799175089469750E-007
 0.101131038232956E-006
 0.858706982593200E+000
 0.393815573564398E+000
 0.109703938933713E+000
 0.660227431063636E+000
 0.179357020629762E-006
 0.268349100605031E-006
 0.216791063289186E-006
 0.206596004409381E-006
 0.473657304804292E-007
 0.686793017536329E-007
 0.560468984718119E-007
 0.572003247941183E-007
 0.142643038381438E-006
 0.921578784280300E-007
 0.791019972582480E-007
 0.100191832247030E-006
 0.474019828849408E-007
 0.354034218066002E-007
 0.440954633753447E-007
 0.406985273318200E-007
 0.137966022344543E-006
 0.550282973882477E-007
 0.571935447226113E-007
 0.688158858306412E-007
 0.172112815601663E+000
 0.475535536785979E-001
 0.188613077614597E+000
 0.103181928649164E+000
 0.556437924959581E-002
 0.659332897383287E-001
 0.648310178430762E-002
 0.381031351914496E-001
 0.574974930863969E-005
 0.210299086312347E-004
 0.190674845091525E-004
 0.198581148508524E-004
 0.755489643846908E-006
 0.450089959034142E-006
 0.694638609595454E-006
 0.633651511273626E-006
 0.343569882729185E-005
 0.135929711775116E-005
 0.637650539353893E-005
 0.396055108456193E-005
 0.133170426930058E-005
 0.392857216438429E-005
 0.609839747658357E-005
 0.358366078184865E-005
 0.390763552063524E-006
 0.439029376286485E-006
 0.324471191151739E-006
 0.392041006269355E-006
 0.123288269022932E-005
 0.111381212584150E-005
 0.269808577984021E-005
 0.133153191478410E-005
 0.457855388939186E-006
 0.427407796983560E-006
 0.695670942451188E-006
 0.486264030559931E-006
 0.487188408408019E-006
 0.724967933577630E-006
 0.541751644341254E-006
 0.562595175010346E-006
 0.347881679764486E-006
 0.246903212466215E-006
 0.313943840055720E-006
 0.304786483839495E-006
 0.256114353405230E-006
 0.341755342580101E-006
 0.294484326066780E-006
 0.283087175075092E-006
 0.137637825160163E-004
 0.295146722855351E-004
 0.407409017930520E-005
 0.922519570122961E-005
 0.145859067911596E-005
 0.274331454379036E-005
 0.112478427038986E-004
 0.227666153862050E-005
 0.128554539442460E-004
 0.198851730226718E-005
 0.413716605077934E-005
 0.420570414522099E-005
 0.507566928029445E-006
 0.771156392157157E-006
 0.779291482485079E-006
 0.709709508997314E-006
 0.308559005990203E-006
 0.255532114171838E-006
 0.549721021504137E-006
 0.336416240315712E-006
 0.115509370115304E+001
 0.747685653657535E+000
 0.120041060186134E-001
 0.139592069192837E+001
 0.278852695970798E-001
 0.644240435900631E-002
 0.171117954910153E+000
 0.518400898805610E-001
 0.283687779342740E-006
 0.376736503072588E-006
 0.291128523542659E-006
 0.310333721240558E-006
 0.233788427784603E-001
 0.141955259063123E+000
 0.403989262018698E+000
 0.236455239977364E+000
 0.427846607796312E-001
 0.106185701169273E+000
 0.761234319198921E-001
 0.444462761486413E-001
 0.318846647682513E-001
 0.518660135666036E+000
 0.234845096354063E+000
 0.376622191980610E+000
 0.240711736185400E+000
 0.218003487164127E+000
 0.349346512113886E+000
 0.296217633885802E+000
 0.644511356301696E-006
 0.132871714900835E-005
 0.820477753535090E-006
 0.843962233593773E-006
 0.263280647348045E-007
 0.299509104577280E-007
 0.289281945678646E-007
 0.279489832018710E-007
 0.354155910400883E-007
 0.263883194653754E-007
 0.292088265202108E-007
 0.282735895846859E-007
 0.149727397849511E+000
 0.220424482779829E+000
 0.172890834580696E-001
 0.204268166566061E+000
 0.720119442663938E-007
 0.500086809274868E-007
 0.632372245875390E-007
 0.598943494097972E-007
 0.720448444474293E-001
 0.190965045246271E+000
 0.137792698738412E+000
 0.292400167458007E+000
 0.430074773071035E-001
 0.842245203621339E-001
 0.126705469235070E+000
 0.425936060645170E-001
 0.659502273033128E-002
 0.584210491156825E-002
 0.537928854898961E-001
 0.299663675342032E-001
 0.583575382505307E-002
 0.674448725629352E-001
 0.536752292264797E-002
 0.358369095539553E-001
 0.776094205276806E-002
 0.100684904569693E-001
 0.100094378741114E-001
 0.103530357209273E-001
 0.531739589816365E-001
 0.273497074687125E-001
 0.679768716953709E+000
 0.796573562350064E-001
 0.754985179328080E+000
 0.301657196972952E+000
 0.182876307948814E-001
 0.678356277230278E+000
 0.260240808075373E-001
 0.650015692305209E-001
 0.126124400084657E+001
 0.315928254835518E-001
 0.576147295085601E-001
 0.710372852555573E-001
 0.331899215818830E+000
 0.341328705981940E-001
 0.769749636142677E-001
 0.860555850994023E-001
 0.389486863616034E+000
 0.920971882576637E-001
 0.176133586570189E-001
 0.809118871605799E-001
 0.771675361294161E-001
 0.760410141472865E-001
 0.261037583627817E-001
 0.124346940401363E+001
 0.703324841262126E+000
 0.119961680400279E+001
 0.167658389429371E+001
 0.720778154653941E-001
 0.220483785921039E+001
 0.193042494839904E+001
 0.275784351748303E+000
 0.149010061416336E-001
 0.198292310885417E+000
 0.328793003249539E+000
 0.584769218783092E-002
 0.173570360359466E+000
 0.772884141936706E-002
 0.367500494140480E-001
 0.661990800131211E-002
 0.108112604533414E-001
 0.531974149004135E+000
 0.571588337492311E-002
 0.945493107677319E-005
 0.676797822731942E-005
 0.526589319105528E-004
 0.879424138752540E-005
 0.488107464135548E-007
 0.440790397271977E-007
 0.556326742986330E-007
 0.496613276234047E-007
 0.306425448687580E-007
 0.465086209614446E-007
 0.396884635068277E-007
 0.372320515083654E-007
 0.139718471588444E-001
 0.985749944668674E-001
 0.133106701668226E-001
 0.174486885960425E-001
 0.515309206748360E+000
 0.324622701150370E+000
 0.302783889439322E+000
 0.328243640348086E+000
 0.108299089745129E-001
 0.796228226234909E+000
 0.266256060343562E-001
 0.658786877303194E-001
 0.580503276893037E+000
 0.118301512197771E+001
 0.391874593400234E+000
 0.759992379582177E+000
 0.221676609026025E-002
 0.388932075706865E-002
 0.378163003023895E-001
 0.128162118596134E-001
 0.117468897889873E+001
 0.733306512187561E-001
 0.136977843756346E-001
 0.204279273790691E+000
 0.255007410156172E+001
 0.491254360415852E-002
 0.348503286988148E+001
 0.434355592407006E+001
 0.107735701093455E-002
 0.314719724490566E-004
 0.223831323385911E-004
 0.272164995955329E-004
 0.195296189634220E+001
 0.212369290967924E-001
 0.949340147987615E-002
 0.692858575400318E-002
 0.432147757318002E-004
 0.270624737910532E-004
 0.705649058283113E-005
 0.301049559740627E-004
 0.390543280817056E-005
 0.260606454162359E-004
 0.540837442576006E-005
 0.551699764622864E-005
 0.263265028565078E-002
 0.502310392452417E-002
 0.388995936618864E-003
 0.453312180518123E-002
 0.145016425423556E-001
 0.734674697965823E+000
 0.525966366942434E-001
 0.105843070475951E+000
 0.203269729463726E-001
 0.146389203934064E-001
 0.877415205456797E+000
 0.689773026262082E-001
 0.114959371047948E-001
 0.924076322741580E-002
 0.155064055670405E-001
 0.123191773950380E-001
 0.764723882693314E+000
 0.292015755804253E-001
 0.260795053941516E-001
 0.221192173331758E-001
 0.381570711598258E-001
 0.157493707339852E+001
 0.248253562949298E-001
 0.151344261268038E-001
 0.114575263454231E-001
 0.317860664873089E+001
 0.358313648015821E+001
 0.382068530026420E+001
 0.380935442236277E-002
 0.418157351917508E-003
 0.410217977367410E-003
 0.343111070116519E-003
 0.132317498116667E-002
 0.548864675777012E-003
 0.101024255692196E-001
 0.669100038952811E-003
 0.510850517993189E-002
 0.279990939977869E-002
 0.379556057153973E-003
 0.457330865058620E-002
 0.104225445437855E-001
 0.130800023101698E-001
 0.433015700119407E+001
 0.731104267614125E-002
 0.117062502033715E-006
 0.953576978614535E-007
 0.183619000109091E-006
 0.122734814280208E-006
 0.662404254767101E-006
 0.109341654477110E-005
 0.139751391635792E-005
 0.101655930083713E-005
 0.395338133893647E-006
 0.574367345150726E-006
 0.529292181798010E-006
 0.498743209960886E-006
 0.541028835376277E-006
 0.385215627156350E-006
 0.409212650420262E-006
 0.426146853891494E-006
 0.125796097668497E-004
 0.105357838964632E-004
 0.229155343573334E-005
 0.111490607117271E-004
 0.217534406956391E-005
 0.132509036503783E-004
 0.304401383974094E-005
 0.324481264732488E-005
 0.496023155609064E-006
 0.600431627807597E-006
 0.426749298295073E-006
 0.502012328564972E-006
 0.387821009453415E-005
 0.204051971996985E-004
 0.278628975401651E-004
 0.200379036545521E-004
 0.149646083008504E-006
 0.135210603436804E-006
 0.229443931249527E-006
 0.163687576732578E-006
 0.333952959064735E+000
 0.128757100221581E+000
 0.165413549551572E+000
 0.255797843354362E+000
 0.438387493702417E-006
 0.785979486937763E-006
 0.524229889894478E-006
 0.547526046603403E-006
 0.343655925296811E-007
 0.581153365607630E-007
 0.592215496003639E-007
 0.464741215795618E-007
 0.211515937816942E-004
 0.237876997073308E-005
 0.965851539984782E-005
 0.463585610703998E-005
 0.340352291943069E-006
 0.408892351818557E-006
 0.287867561609255E-006
 0.345081249315775E-006
 0.842787319409509E-006
 0.855453687539576E-006
 0.463734060389109E-006
 0.752101726205284E-006
 0.214960085671675E-005
 0.113642345494500E-004
 0.195184883437097E-005
 0.219621615305533E-005
 0.618011392302753E-002
 0.525860888623293E-001
 0.712036728009819E-002
 0.334627637467047E-001
 0.339829046728107E+000
 0.169772490321636E+001
 0.809620443502971E+000
 0.100601957368051E+001
 0.257281764115237E-001
 0.246269164561576E+000
 0.338003842907452E+000
 0.345573551816585E+000
 0.176560790488225E-006
 0.259449247561727E-006
 0.236399054150464E-006
 0.211064354819433E-006
 0.723079389175879E-006
 0.396878138999326E-006
 0.356756345614173E-006
 0.437753814279731E-006
 0.762048025842838E-006
 0.348098724078694E-006
 0.337641756199379E-006
 0.418378425852026E-006
 0.135210500276182E-004
 0.256637264780202E-005
 0.143641039764424E-004
 0.122595983584833E-004
 0.156364447338754E-001
 0.145793457921761E-001
 0.925125572702578E-001
 0.207386168469486E-001
 0.738410362428588E+000
 0.367118198480213E-001
 0.377972602613346E+000
 0.670415782002700E+000
 0.284209451614629E+000
 0.577021690179741E+000
 0.303398074052837E+000
 0.367161459474106E+000
 0.263816946084256E-007
 0.330220557822211E-007
 0.288355890702844E-007
 0.281606208814858E-007
 0.551155984617686E-007
 0.823367134087256E-007
 0.248947614888124E-006
 0.851136097368578E-007
 0.173679099944178E-001
 0.654888608847393E-001
 0.150666671630543E-001
 0.182917073736096E-001
 0.188056656406979E-001
 0.241154765337621E-001
 0.616420161907894E-001
 0.206569052234660E-001
 0.133788969635849E+000
 0.610661733322314E-001
 0.475562815046084E-001
 0.706283150598774E-001
 0.867513672053651E-002
 0.159921925576250E-001
 0.617031482586665E-001
 0.687456624886486E-001
 0.299499594469876E-001
 0.411589489636012E-001
 0.553770815289094E+000
 0.828467359003877E-001
 0.317110643050396E-001
 0.193240563711516E+000
 0.690271215847896E-002
 0.614188264064836E-001
 0.142684713272111E+000
 0.107207579027136E+000
 0.415306436689836E-001
 0.590862353029821E-001
 0.233360268149184E-001
 0.126324992200425E+000
 0.187108318881731E+000
 0.996444012142577E-001
 0.286020810889671E-001
 0.500425354110809E+000
 0.661082174062920E+000
 0.972297890043091E+000
 0.905336960044826E-001
 0.154166678645415E-001
 0.168875194579113E+000
 0.114561404984701E+000
 0.369034675315718E-001
 0.195146737729210E+000
 0.433856246599893E-001
 0.754507327510972E-001
 0.307039916187468E-006
 0.667337682695094E-006
 0.167109916701540E-006
 0.338229435040114E-006
 0.974455461893686E-003
 0.689221626448111E-003
 0.346008582682942E-004
 0.105318829782183E-002
 0.308955445264458E-002
 0.224655998356455E-002
 0.211014938404263E-001
 0.972389422474513E-002
 0.129860334840895E-001
 0.352040420168113E-001
 0.996564603797908E-002
 0.189446507463214E-001
 0.364580489429706E-006
 0.323145036768389E-006
 0.366942995979593E-006
 0.352576570807628E-006
 0.399464968647851E-006
 0.373502332602685E-006
 0.315960871020062E-006
 0.354056206451444E-006
 0.145087119282225E-001
 0.477583783961285E-001