# vtk DataFile Version 3.0
Unstructured Grid
ASCII
DATASET UNSTRUCTURED_GRID
FIELD FieldData 1
TIME 1 1 float
  0.515625E+02
POINTS          640 double
 0.000000000000000E+000 0.000000000000000E+000 0.000000000000000E+000
 0.100000000000000E+001 0.000000000000000E+000 0.000000000000000E+000
 0.100000000000000E+001 0.100000000000000E+001 0.000000000000000E+000
 0.000000000000000E+000 0.100000000000000E+001 0.000000000000000E+000
 0.125000000000000E+000 0.250000000000000E+000 0.000000000000000E+000
 0.375000000000000E+000 0.250000000000000E+000 0.000000000000000E+000
 0.375000000000000E+000 0.750000000000000E+000 0.000000000000000E+000
 0.125000000000000E+000 0.750000000000000E+000 0.000000000000000E+000
 0.625000000000000E+000 0.250000000000000E+000 0.000000000000000E+000
 0.875000000000000E+000 0.250000000000000E+000 0.000000000000000E+000
 0.875000000000000E+000 0.750000000000000E+000 0.000000000000000E+000
 0.625000000000000E+000 0.750000000000000E+000 0.000000000000000E+000
 0.100000000000000E+001 0.500000000000000E+000 0.000000000000000E+000
 0.000000000000000E+000 0.500000000000000E+000 0.000000000000000E+000
 0.500000000000000E+000 0.000000000000000E+000 0.000000000000000E+000
 0.125000000000000E+000 0.500000000000000E+000 0.000000000000000E+000
 0.000000000000000E+000 0.750000000000000E+000 0.000000000000000E+000
 0.000000000000000E+000 0.250000000000000E+000 0.000000000000000E+000
 0.000000000000000E+000 0.875000000000000E+000 0.000000000000000E+000
 0.000000000000000E+000 0.125000000000000E+000 0.000000000000000E+000
 0.625000000000000E-001 0.812500000000000E+000 0.000000000000000E+000
 0.125000000000000E+000 0.375000000000000E+000 0.000000000000000E+000
 0.125000000000000E+000 0.625000000000000E+000 0.000000000000000E+000
 0.500000000000000E+000 0.100000000000000E+001 0.000000000000000E+000
 0.250000000000000E+000 0.100000000000000E+001 0.000000000000000E+000
 0.125000000000000E+000 0.100000000000000E+001 0.000000000000000E+000
 0.729166666666667E-001 0.885416666666667E+000 0.000000000000000E+000
 0.000000000000000E+000 0.625000000000000E+000 0.000000000000000E+000
 0.625000000000000E-001 0.562500000000000E+000 0.000000000000000E+000
 0.375000000000000E+000 0.500000000000000E+000 0.000000000000000E+000
 0.375000000000000E+000 0.100000000000000E+001 0.000000000000000E+000
 0.250000000000000E+000 0.000000000000000E+000 0.000000000000000E+000
 0.625000000000000E-001 0.187500000000000E+000 0.000000000000000E+000
 0.143518518518519E+000 0.775462962962963E-001 0.000000000000000E+000
 0.156250000000000E+000 0.156250000000000E+000 0.000000000000000E+000
 0.729166666666667E-001 0.114583333333333E+000 0.000000000000000E+000
 0.125000000000000E+000 0.000000000000000E+000 0.000000000000000E+000
 0.250000000000000E+000 0.250000000000000E+000 0.000000000000000E+000
 0.375000000000000E+000 0.000000000000000E+000 0.000000000000000E+000
 0.187500000000000E+000 0.218750000000000E+000 0.000000000000000E+000
 0.312500000000000E+000 0.762453007518797E-001 0.000000000000000E+000
 0.270259392278489E+000 0.159169301283415E+000 0.000000000000000E+000
 0.365310977506407E+000 0.155367112827996E+000 0.000000000000000E+000
 0.312500000000000E+000 0.216265619131990E+000 0.000000000000000E+000
 0.500000000000000E+000 0.189389379011873E+000 0.000000000000000E+000
 0.426456487258648E+000 0.196919158251449E+000 0.000000000000000E+000
 0.451620395371675E+000 0.941243892751461E-001 0.000000000000000E+000
 0.381804756165356E+000 0.871724813114945E-001 0.000000000000000E+000
 0.437500000000000E+000 0.273708879364394E-001 0.000000000000000E+000
 0.000000000000000E+000 0.375000000000000E+000 0.000000000000000E+000
 0.625000000000000E-001 0.312500000000000E+000 0.000000000000000E+000
 0.250000000000000E+000 0.750000000000000E+000 0.000000000000000E+000
 0.158482142857143E+000 0.851934523809524E+000 0.000000000000000E+000
 0.210861885404568E+000 0.921875000000000E+000 0.000000000000000E+000
 0.136017278952732E+000 0.925863358051789E+000 0.000000000000000E+000
 0.625000000000000E-001 0.687500000000000E+000 0.000000000000000E+000
 0.250000000000000E+000 0.437500000000000E+000 0.000000000000000E+000
 0.247528011619582E+000 0.839830719156545E+000 0.000000000000000E+000
 0.312500000000000E+000 0.796669265575374E+000 0.000000000000000E+000
 0.419664368355990E+000 0.875000000000000E+000 0.000000000000000E+000
 0.313183356674252E+000 0.918387829019328E+000 0.000000000000000E+000
 0.312500000000000E+000 0.100000000000000E+001 0.000000000000000E+000
 0.380617553087688E+000 0.931527612480385E+000 0.000000000000000E+000
 0.187500000000000E+000 0.785936956899548E+000 0.000000000000000E+000
 0.350379273974835E+000 0.857317802397078E+000 0.000000000000000E+000
 0.228046514569416E+000 0.817347524546315E-001 0.000000000000000E+000
 0.187500000000000E+000 0.312500000000000E+000 0.000000000000000E+000
 0.625000000000000E-001 0.437500000000000E+000 0.000000000000000E+000
 0.197916666666667E+000 0.385416666666667E+000 0.000000000000000E+000
 0.375000000000000E+000 0.375000000000000E+000 0.000000000000000E+000
 0.750000000000000E+000 0.000000000000000E+000 0.000000000000000E+000
 0.625000000000000E-001 0.959280303030303E+000 0.000000000000000E+000
 0.234375000000000E+000 0.562500000000000E+000 0.000000000000000E+000
 0.187500000000000E+000 0.687500000000000E+000 0.000000000000000E+000
 0.193892045454545E+000 0.618607954545455E+000 0.000000000000000E+000
 0.375000000000000E+000 0.625000000000000E+000 0.000000000000000E+000
 0.283775504647110E+000 0.640801989544002E+000 0.000000000000000E+000
 0.281298714846257E+000 0.504888901855782E+000 0.000000000000000E+000
 0.331282779604339E+000 0.562500000000000E+000 0.000000000000000E+000
 0.338845441361880E+000 0.687500000000000E+000 0.000000000000000E+000
 0.500000000000000E+000 0.775815254846569E+000 0.000000000000000E+000
 0.625000000000000E-001 0.407196969696970E-001 0.000000000000000E+000
 0.328125000000000E+000 0.437500000000000E+000 0.000000000000000E+000
 0.284143518518519E+000 0.340856481481482E+000 0.000000000000000E+000
 0.312500000000000E+000 0.278356481481482E+000 0.000000000000000E+000
 0.625000000000000E+000 0.500000000000000E+000 0.000000000000000E+000
 0.410581328448014E+000 0.312500000000000E+000 0.000000000000000E+000
 0.543730092976870E+000 0.258404709955172E+000 0.000000000000000E+000
 0.625000000000000E+000 0.375000000000000E+000 0.000000000000000E+000
 0.500000000000000E+000 0.404784409423024E+000 0.000000000000000E+000
 0.590394028376448E+000 0.312500000000000E+000 0.000000000000000E+000
 0.467392923590959E+000 0.261422480241605E+000 0.000000000000000E+000
 0.508234229043035E+000 0.327522431406248E+000 0.000000000000000E+000
 0.625000000000000E+000 0.000000000000000E+000 0.000000000000000E+000
 0.537311919648379E+000 0.110523699730938E+000 0.000000000000000E+000
 0.750000000000000E+000 0.250000000000000E+000 0.000000000000000E+000
 0.593146640296986E+000 0.172723366619635E+000 0.000000000000000E+000
 0.623771215502605E+000 0.890722450407200E-001 0.000000000000000E+000
 0.687500000000000E+000 0.454068088573020E-001 0.000000000000000E+000
 0.793069391389776E+000 0.125000000000000E+000 0.000000000000000E+000
 0.695513657869308E+000 0.162768437982326E+000 0.000000000000000E+000
 0.687500000000000E+000 0.250000000000000E+000 0.000000000000000E+000
 0.875000000000000E+000 0.500000000000000E+000 0.000000000000000E+000
 0.727921748554044E+000 0.101601148842529E+000 0.000000000000000E+000
 0.759582972952604E+000 0.183381972603444E+000 0.000000000000000E+000
 0.875000000000000E+000 0.375000000000000E+000 0.000000000000000E+000
 0.718750000000000E+000 0.343750000000000E+000 0.000000000000000E+000
 0.697916666666667E+000 0.437500000000000E+000 0.000000000000000E+000
 0.750000000000000E+000 0.572048611111111E+000 0.000000000000000E+000
 0.787123226950355E+000 0.408133865248227E+000 0.000000000000000E+000
 0.804687500000000E+000 0.320312500000000E+000 0.000000000000000E+000
 0.700214460784314E+000 0.513965482026144E+000 0.000000000000000E+000
 0.783021635712153E+000 0.493366127722916E+000 0.000000000000000E+000
 0.625000000000000E+000 0.625000000000000E+000 0.000000000000000E+000
 0.848380638879200E+000 0.437500000000000E+000 0.000000000000000E+000
 0.562500000000000E+000 0.404604515401992E-001 0.000000000000000E+000
 0.875000000000000E+000 0.625000000000000E+000 0.000000000000000E+000
 0.750000000000000E+000 0.750000000000000E+000 0.000000000000000E+000
 0.697046765904942E+000 0.621060933265583E+000 0.000000000000000E+000
 0.200520833333333E+000 0.494791666666667E+000 0.000000000000000E+000
 0.429642360217793E+000 0.800955091165693E+000 0.000000000000000E+000
 0.453073336954457E+000 0.687500000000000E+000 0.000000000000000E+000
 0.548183885155829E+000 0.693587592964698E+000 0.000000000000000E+000
 0.750000000000000E+000 0.100000000000000E+001 0.000000000000000E+000
 0.573843760532799E+000 0.437500000000000E+000 0.000000000000000E+000
 0.500000000000000E+000 0.550126792242997E+000 0.000000000000000E+000
 0.511972906944656E+000 0.477455600833011E+000 0.000000000000000E+000
 0.437507615834863E+000 0.452402202857321E+000 0.000000000000000E+000
 0.546458141439317E+000 0.614345103225503E+000 0.000000000000000E+000
 0.571440414895569E+000 0.547357897962524E+000 0.000000000000000E+000
 0.450991397292447E+000 0.610087136082382E+000 0.000000000000000E+000
 0.875000000000000E+000 0.000000000000000E+000 0.000000000000000E+000
 0.100000000000000E+001 0.250000000000000E+000 0.000000000000000E+000
 0.100000000000000E+001 0.375000000000000E+000 0.000000000000000E+000
 0.687500000000000E+000 0.700324699898860E+000 0.000000000000000E+000
 0.812500000000000E+000 0.687500000000000E+000 0.000000000000000E+000
 0.804621866531165E+000 0.617121866531165E+000 0.000000000000000E+000
 0.825181931429427E+000 0.549770415540467E+000 0.000000000000000E+000
 0.100000000000000E+001 0.625000000000000E+000 0.000000000000000E+000
 0.100000000000000E+001 0.750000000000000E+000 0.000000000000000E+000
[...]
CELL_DATA         1212
SCALARS tdens double 1
LOOKUP_TABLE default
 0.459341708834016E-009
 0.177178028181813E-009
 0.240414594045396E-009
 0.235955581009494E-009
 0.303184314575172E-008
 0.687281407956562E-008
 0.264311176303795E-008
 0.324121281047736E-008
 0.824008506787072E-001
 0.365807821161560E-001
 0.815626073482028E-001
 0.173837001596852E+000
 0.136408653991799E-009
 0.119901314937360E-009
 0.940957931798487E-010
 0.104456715608019E-009
 0.174713062147704E-009
 0.458442876083141E-009
 0.239695751495161E-009
 0.234591222261203E-009
 0.226961759086884E-009
 0.381162937772871E-009
 0.372476061112762E-009
 0.307343189337558E-009
 0.792164148931694E-009
 0.480435861261860E-009
 0.541692308454734E-009
 0.589301766614656E-009
 0.560241615153206E-007
 0.197043257009485E-007
 0.637484042026160E-008
 0.187263182642573E-007
 0.255855389371536E-001
 0.411418563755974E+000
 0.457341062488840E-002
 0.108871090525553E+000
 0.816814365204978E-010
 0.727619985260014E-010
 0.792160639707598E-010
 0.764814002869291E-010
 0.765472392132472E-008
 0.338560853849834E-008
 0.611090033016363E-008
 0.595567524585738E-008
 0.320309281454843E-009
 0.396324284069376E-009
 0.468601064517943E-009
 0.387460721883390E-009
 0.265298478483176E-008
 0.319630593135495E-008
 0.534106756744706E-009
 0.151841982513447E-008
 0.170313862934477E+000
 0.386524711876402E-001
 0.156974538880491E-001
 0.134053575082329E+000
 0.129197483029917E-008
 0.122059685359925E-008
 0.143441182366748E-008
 0.130188365571348E-008
 0.307249993410128E-001
 0.846336491610667E-001
 0.178554793183945E+001
 0.316312787083591E+000
 0.115385228060043E-009
 0.854777209867021E-010
 0.862762727926711E-010
 0.908990313840657E-010
 0.124231610099122E-009
 0.137402816645351E-009
 0.157506307991235E-009
 0.140104957748340E-009
 0.146470512899860E-009
 0.195768332471457E-009
 0.873661059838009E-010
 0.113747529719009E-009
 0.298407627782329E-002
 0.308556618737255E-001
 0.229193752620181E-003
 0.866057464472884E-002
 0.583266443368418E-008
 0.118066559905696E-008
 0.446137591051014E-008
 0.287832108288185E-008
 0.955709463757883E-010
 0.807464158335126E-010
 0.731523444408089E-010
 0.782040566825367E-010
 0.250911468025019E-001
 0.110956844887164E+000
 0.566607919515380E-002
 0.404003167531929E-001
 0.192602630763916E-009
 0.162947043187623E-009
 0.166636474601440E-009
 0.176466965697470E-009
 0.113007964426451E-009
 0.861091693155091E-010
 0.879633330902367E-010
 0.917023194360432E-010
 0.652295215546194E-009
 0.802595681646900E-009
 0.146285330040210E-008
 0.863452950311511E-009
 0.181450980324106E-009
 0.155879167499978E-009
 0.202614618784640E-009
 0.175397494021748E-009
 0.307488251359373E-001
 0.137640846107025E-001
 0.264930442977044E+000
 0.902922573180295E-003
 0.731402652493663E-009
 0.160138351890405E-009
 0.212333150410504E-009
 0.257612039278390E-009
 0.466164595019275E-008
 0.330512007443103E-007
 0.906773132294845E-008
 0.725841378805785E-008
 0.432209704269990E-009
 0.228763478801787E-009
 0.282511457951507E-009
 0.298924031948788E-009
 0.390834992957449E-009
 0.158914964652305E-009
 0.156048928238049E-009
 0.193274411245689E-009
 0.658154716984979E-002
 0.546526258934630E-001
 0.541627122203443E-002
 0.286530956828114E-001
 0.206950737432990E-008
 0.106341674529265E-008
 0.292381255341181E-008
 0.202137331763932E-008
 0.410426158642274E-008
 0.110810918600440E-007
 0.384293023514946E-008
 0.458006410963627E-008
 0.197002688679201E-009
 0.249349488949265E-009
 0.347034628175517E-009
 0.261138725658260E-009
 0.132072121151856E-009
 0.852233946099060E-010
 0.111519482227668E-009
 0.104364090711953E-009
 0.655380777108763E-009
 0.333066564807809E-009
 0.122387828219247E-008
 0.582919464904396E-009
 0.313186639201007E-009
 0.501692244420040E-009
 0.457756093957366E-009
 0.414215141090040E-009
 0.818750575153647E-010
 0.728436232894814E-010
 0.797018853473019E-010
 0.770201281644594E-010
 0.115555269861543E-009
 0.865957351656925E-010
 0.858673349811211E-010
 0.913246730697814E-010
 0.158693715940481E-009
 0.141083633625030E-009
 0.870800411682794E-010
 0.111725291268833E-009
 0.848466201064034E+000
 0.370936523911084E+000
 0.937099804666690E-002
 0.617504051768842E+000
 0.157570779522462E-003
 0.335525035815230E-003
 0.317158219761668E+001
 0.202184569559360E-003
 0.316555570392440E+000
 0.801325995095085E-001
 0.414403998956262E+000
 0.509581073757266E-001
 0.143660230325826E-008
 0.168643699664655E-008
 0.204186361921543E-008
 0.169291816281602E-008
 0.122532468541088E-008
 0.331438949155683E-009
 0.681224469257858E-009
 0.594091068261612E-009
 0.261114597269488E-009
 0.226854239242224E-009
 0.440214932836298E-009
 0.289781090162481E-009
 0.168946067984142E-009
 0.163281531131917E-009
 0.193527593284600E-009
 0.177592870152934E-009
 0.103633556251661E-008
 0.163292932430862E-008
 0.790573602269479E-009
 0.105688574267604E-008
 0.202561140887667E-009
 0.155742688491748E-009
 0.180862771470830E-009
 0.175198991948439E-009
 0.478017759133280E-009
 0.747400366492504E-009
 0.580078834752498E-009
 0.598265230477884E-009
 0.133749938685439E-009
 0.158014516316293E-009
 0.203592310769118E-009
 0.164540525574175E-009
 0.107685929898977E-009
 0.120969816752318E-009
 0.834614639882775E-010
 0.988776620080819E-010
 0.204182126233695E-009
 0.330762566776675E-009
 0.255286538479234E-009
 0.256805361712909E-009
 0.345073643904709E-009
 0.524699488342733E-009
 0.553565062355617E-009
 0.464261000388219E-009
 0.121119111247584E-008
 0.158192393391232E-008
 0.144322409338432E-008
 0.142052209726514E-008
 0.122824943726452E-008
 0.238459769787994E-008
 0.341401797966541E-008
 0.225397423854044E-008
 0.165954649707736E-006
 0.265798354444145E-007
 0.245370323656935E-007
 0.275097885544431E-007
 0.279592713902122E-007
 0.731293145159293E-007
 0.104947100721585E-006
 0.912623269100334E-007
 0.167785854475633E-007
 0.498918988108736E-007
 0.776488433990477E-008
 0.177158345550758E-007
 0.180104216900836E-009
 0.141415269946322E-009
 0.214725289277921E-009
 0.172772024619212E-009
 0.725787713830853E-007
 0.503538706546204E-007
 0.136660172114423E-007
 0.301122948163741E-007
 0.827942467969435E-008
 0.437804570185192E-007
 0.185417655929639E-007
 0.183687750927631E-007
 0.541607159381197E-009
 0.775737208244356E-009
 0.786253973034845E-009
 0.682507334840434E-009
 0.229526901147101E-008
 0.134532341805680E-008
 0.277708959445667E-008
 0.214596220923772E-008
 0.950996852705078E-009
 0.109996934414997E-008
 0.122932170150400E-008
 0.105229347158887E-008
 0.417791876850650E-005
 0.122549084997647E-004
 0.172959833113484E-003
 0.710230744652128E-005
 0.187864913458009E-007
 0.441487991300016E-008
 0.141925186986413E-007
 0.155716861891397E-007
 0.517915023176795E-008
 0.121257676537536E-007
 0.403875107086353E-008
 0.538964851405478E-008
 0.769638390183525E-008
 0.807790464962138E-008
 0.290195508232861E-008
 0.688260840085925E-008
 0.698653291878504E-009
 0.768876463030756E-009
 0.533697537614966E-009
 0.661037868766439E-009
 0.280027054934498E-008
 0.837618922473069E-008
 0.466756663415438E-008
 0.439149448052624E-008
 0.256418623842785E-007
 0.143234009372322E-006
 0.162207318587067E-006
 0.143654406303888E-006
 0.163189158512620E-008
 0.266179632951542E-008
 0.132081323355190E-008
 0.167419002662044E-008
 0.121299841347955E-009
 0.108137779328196E-009
 0.836073033452406E-010
 0.991720460818939E-010
 0.891654860999884E-009
 0.121309953618733E-008
 0.990846046789951E-009
 0.101243266700112E-008
 0.209167818045399E-008
 0.296381620383265E-008
 0.178805164717249E-008
 0.213654248927527E-008
 0.971587634350126E-009
 0.110748219447930E-008
 0.108486635185358E-008
 0.106395616884948E-008
 0.116026303331705E-008
 0.147980194295475E-008
 0.117854850009574E-008
 0.123189819302747E-008
 0.100627245206578E-009
 0.135022608585183E-009
 0.124543644820835E-009
 0.115975545989971E-009
 0.128058109996996E-009
 0.958733695878384E-010
 0.118385668926887E-009
 0.104251672116873E-009
 0.662533527171063E-009
 0.214015441629896E-009
 0.152492165330888E-009
 0.234292897752128E-009
 0.504023952659254E-008
 0.383503445714798E-008
 0.105905434401252E-008
 0.252773319736605E-008
 0.146391188397501E-008
 0.105936725741078E-008
 0.704646046618639E-009
 0.103664949301723E-008
 0.261174489486484E-009
 0.427318301820569E-009
 0.226880138386946E-009
 0.288520854398152E-009
 0.122618250053062E+001
 0.531983970307115E+000
 0.109433386995406E+000
 0.877266603624398E+000
 0.529003213783929E-009
 0.810761148798031E-009
 0.646430139711274E-009
 0.614151750192572E-009
 0.133105579754095E-009
 0.195170106201569E-009
 0.158202829092345E-009
 0.161511239385834E-009
 0.412660997234692E-009
 0.263913542236063E-009
 0.224985567719902E-009
 0.286862021747523E-009
 0.131136609837680E-009
 0.977827466159453E-010
 0.122094702586689E-009
 0.112422586966274E-009
 0.394919255775153E-009
 0.152929840758597E-009
 0.159566558530843E-009
 0.192297689634273E-009
 0.146803121821748E+000
 0.254925599350320E-001
 0.239507428324914E+000
 0.586333723485635E-001
 0.564142099076639E-002
 0.808713434694886E-001
 0.596112545699229E-002
 0.378492311765086E-001
 0.186085470146122E-007
 0.807379391299839E-007
 0.605820753760964E-007
 0.717371989054540E-007
 0.238316161836001E-008
 0.138981034203198E-008
 0.215101914672368E-008
 0.197868985434717E-008
 0.111325862948297E-007
 0.424415143287451E-008
 0.207843133603946E-007
 0.129646531482636E-007
 0.472520490489808E-008
 0.158771107680503E-007
 0.260035302026756E-007
 0.143279641106895E-007
 0.122102699726776E-008
 0.139048421287025E-008
 0.998576926883780E-009
 0.122617294114165E-008
 0.396235241102399E-008
 0.349416065032919E-008
 0.877407200652991E-008
 0.421843427399077E-008
 0.143904301857063E-008
 0.132753663399725E-008
 0.222055413474585E-008
 0.152375572186684E-008
 0.154964980536014E-008
 0.239104797100950E-008
 0.174988467557958E-008
 0.181627640329224E-008
 0.107261627718330E-008
 0.742586290023163E-009
 0.957720283893295E-009
 0.930389360501904E-009
 0.772301948704509E-009
 0.105416579404704E-008
 0.897823640393653E-009
 0.860540343094328E-009
 0.480984733376070E-007
 0.111222741504390E-006
 0.122915997824597E-007
 0.295143023228873E-007
 0.453412184319242E-008
 0.837895668138421E-008
 0.391534610934180E-007
 0.700546008940615E-008
 0.463478560855873E-007
 0.658973039338852E-008
 0.135507060535108E-007
 0.139121734652812E-007
 0.160937448991630E-008
 0.248821738358275E-008
 0.256246273948391E-008
 0.230521164350267E-008
 0.914106006266952E-009
 0.756246772387560E-009
 0.166085343445854E-008
 0.999637180959765E-009
 0.131970489947061E+001
 0.863941642892020E+000
 0.889659249784172E-002
 0.158422801914075E+001
 0.280507268758067E-001
 0.596624675720962E-002
 0.184915916169843E+000
 0.520065586490648E-001
 0.851087924824899E-009
 0.114922114202837E-008
 0.875016667831308E-009
 0.935679642896627E-009
 0.158138755929902E-001
 0.435197737150073E-001
 0.153976107805583E+000
 0.147964655034266E+000
 0.421962602911525E-001
 0.922657976026867E-001
 0.563588394989568E-001
 0.364579043271553E-001
 0.289159126950143E-001
 0.622709900201113E+000
 0.300702851560550E+000
 0.430247073283805E+000
 0.173548102700995E+000
 0.281510271951445E+000
 0.385715831140605E+000
 0.426902929705266E+000
 0.203162846525422E-008
 0.438674005330890E-008
 0.265079541682248E-008
 0.271651387012991E-008
 0.727247594560428E-010
 0.830109485533038E-010
 0.801862549371565E-010
 0.773438318792943E-010
 0.100446616122136E-009
 0.729407561884223E-010
 0.812095316839513E-010
 0.785405211326237E-010
 0.105703550532812E+000
 0.126741494716116E+000
 0.208857952289057E-001
 0.118981798647054E+000
 0.204609311446211E-009
 0.140636261473371E-009
 0.178748725005216E-009
 0.169346154788307E-009
 0.167073816115841E-001
 0.239464402571960E+000
 0.239705797619292E-001
 0.397086121788233E-001
 0.435025471876517E-001
 0.388506401223797E-001
 0.186219924274507E+000
 0.231853452213981E-001
 0.723547468447460E-002
 0.601786067555663E-002
 0.798943457721006E-001
 0.320608888809477E-001
 0.529159336190470E-002
 0.835469306556581E-001
 0.539033075961564E-002
 0.355497021568702E-001
 0.112290631216528E-003
 0.191537890669830E-003
 0.204398766287103E-003
 0.218750894305842E-003
 0.269983373985527E-001
 0.179884816392736E-001
 0.833954875628593E+000
 0.893235328929105E-001
 0.816501121334269E+000
 0.282631673836333E+000
 0.139497301927008E-001
 0.673976227430069E+000
 0.276794480181909E-002
 0.632881467683790E-002
 0.135921159341755E+001
 0.159424807263356E-001
 0.803079998403412E-002
 0.651036395231259E-001
 0.245042265767146E+000
 0.168154713039166E-001
 0.402356036788505E-001
 0.646921979653957E-001
 0.609431132599321E+000
 0.678155823291966E-001
 0.166351035972573E-002
 0.564784613936199E-001
 0.477918024071941E-001
 0.245611697668270E-001
 0.117404079521337E-001
 0.143546017057592E+001
 0.883331351171740E+000
 0.152597437359993E+001
 0.189820325877805E+001
 0.136715365288332E-001
 0.228754016697483E+001
 0.226202416248791E+001
 0.278465728107389E+000
 0.338906751125359E-001
 0.239302378379469E+000
 0.314849215007169E+000
 0.539371536581331E-002
 0.195285772026171E+000
 0.624607468288327E-002
 0.379656886367263E-001
 0.115228861898523E-003
 0.307076600328564E-003
 0.319707608519203E+000
 0.114093193343422E-003
 0.316237167408129E-007
 0.267603725440055E-007
 0.254316966833060E-006
 0.315143781524596E-007
 0.137030046274064E-009
 0.123617888533872E-009
 0.156874981081143E-009
 0.139569985859889E-009
 0.850405521894706E-010
 0.130559656766350E-009
 0.110970918830984E-009
 0.103909613960663E-009
 0.103298903866630E-001
 0.424848962845472E-001
 0.356235163966506E-003
 0.151183435206522E-001
 0.538464803253975E+000
 0.252257762965968E+000
 0.249041549146438E+000
 0.303156045359463E+000
 0.332450404393357E-003
 0.886088317831503E+000
 0.292016092866939E-001
 0.956541232271875E-001
 0.541502605650254E+000
 0.134130353346579E+001
 0.378885271564351E+000
 0.728544688993033E+000
 0.223759792634633E-002
 0.673177752690593E-002
 0.330145511522988E-001
 0.107937496451192E-001
 0.134315127220213E+001
 0.669988120229055E-001
 0.152349354035448E-001
 0.247569667572118E+000
 0.319158588325699E+001
 0.393061672294994E-004
 0.343905137177651E+001
 0.466383522099408E+001
 0.134377552571033E-004
 0.165451084752668E-006
 0.113290649397764E-006
 0.139878326774816E-006
 0.225033049266247E+001
 0.160595180911036E-002
 0.115051959506281E-003
 0.134999615114552E-003
 0.207321802375152E-006
 0.119935086252756E-006
 0.269609803295790E-007
 0.134202602257434E-006
 0.140959969459784E-007
 0.117042199184004E-006
 0.206433394675031E-007
 0.209737746177808E-007
 0.235303530723232E-004
 0.648997911478936E-004
 0.264870171005217E-005
 0.488765383638431E-004
 0.314073584577329E-003
 0.292636758337018E+000
 0.680735110472534E-003
 0.143627437140752E-002
 0.848343833786007E-002
 0.859824638101680E-002
 0.957645720311379E+000
 0.124550950355311E+000
 0.176872370472194E-003
 0.144402799783091E-003
 0.130209937363941E-003
 0.156269139374448E-003
 0.363624781812520E+000
 0.241255676080432E-002
 0.952505427876000E-003
 0.879281499527980E-003
 0.718771709084866E-002
 0.183446720938620E+001
 0.630240568681163E-003
 0.589676744352259E-003
 0.816893310232169E-004
 0.397668262145909E+001
 0.334080194433064E+001
 0.432499573194922E+001
 0.364743128831084E-004
 0.293365343682192E-005
 0.286763173963931E-005
 0.234111036939300E-005
 0.121944374507721E-004
 0.413209333533632E-005
 0.155941820408823E-003
 0.630367468078485E-005
 0.647007890440047E-004
 0.243075048076920E-004
 0.259236700077448E-005
 0.468525795242391E-004
 0.939194126914081E-004
 0.108927502787281E-003
 0.447893499990711E+001
 0.511421861168972E-004
 0.339134213962113E-009
 0.274406723223586E-009
 0.540063117759507E-009
 0.355654600101142E-009
 0.207541102338320E-008
 0.343958901572200E-008
 0.455690347619472E-008
 0.323279814592248E-008
 0.121515680430062E-008
 0.181504944651540E-008
 0.166273154314756E-008
 0.156019786247221E-008
 0.170204459801654E-008
 0.118190636427295E-008
 0.126048523140225E-008
 0.131672559850688E-008
 0.437704708067564E-007
 0.357506459871785E-007
 0.724803823989427E-008
 0.380602969321173E-007
 0.696508221430042E-008
 0.477254730711357E-007
 0.103273367484934E-007
 0.106976311341130E-007
 0.154247362619266E-008
 0.189934141670352E-008
 0.131746224006323E-008
 0.156642124358735E-008
 0.138177372635824E-007
 0.852294957859442E-007
 0.124204078568929E-006
 0.827253822301729E-007
 0.436361839758769E-009
 0.393441257322223E-009
 0.681225636104041E-009
 0.478769533301068E-009
 0.268454264911262E+000
 0.947995657763289E-001
 0.168103409990117E+000
 0.204988600679497E+000
 0.133292742521691E-008
 0.243495365286525E-008
 0.161928232563650E-008
 0.167984762274147E-008
 0.957579715087450E-010
 0.164266534424473E-009
 0.167653381440279E-009
 0.130788260359172E-009
 0.851224252504416E-007
 0.766884586414663E-008
 0.331337960785284E-007
 0.145366712757600E-007
 0.102611736001473E-008
 0.124850036049532E-008
 0.863368285109142E-009
 0.104393903168356E-008
 0.259058038895040E-008
 0.263274422760640E-008
 0.140570467524295E-008
 0.231465056861938E-008
 0.680414029417450E-008
 0.381181620482872E-007
 0.616056640314330E-008
 0.680646846620396E-008
 0.602282878107345E-002
 0.525716049368226E-001
 0.710906727896703E-002
 0.332215782295008E-001
 0.375272054501885E+000
 0.232079920223861E+001
 0.845679530761229E+000
 0.110558333459250E+001
 0.230801672833805E-001
 0.276102849855538E+000
 0.372031189635304E+000
 0.364319026312705E+000
 0.517799448948586E-009
 0.772691863643019E-009
 0.702384004690346E-009
 0.624595193702030E-009
 0.222330778662996E-008
 0.119915119337158E-008
 0.107192586675026E-008
 0.132250534482715E-008
 0.234530381970800E-008
 0.104383222783630E-008
 0.100678352312852E-008
 0.125542411332312E-008
 0.527983453348273E-007
 0.821083905306142E-008
 0.526412493352490E-007
 0.422279584695623E-007
 0.314771225936112E-001
 0.201885599017777E-002
 0.379937811325762E-001
 0.107040760214801E-001
 0.733352098999479E+000
 0.454595780590273E-001
 0.362841786929590E+000
 0.692035807419295E+000
 0.244400857359869E+000
 0.546298389986653E+000
 0.371767132328861E+000
 0.516673889980067E+000
 0.732187678811332E-010
 0.946537763151823E-010
 0.801384107727508E-010
 0.785259149858770E-010
 0.153292891543265E-009
 0.238503184074191E-009
 0.734725202281433E-009
 0.241823320463735E-009
 0.105939168338382E-001
 0.181805136061007E-001
 0.118832146309207E-001
 0.551325379103461E-002
 0.171841998489338E-001
 0.602036288433291E-002
 0.148509546726439E-001
 0.483474221817768E-002
 0.161620915908196E+000
 0.459197604644311E-001
 0.582808202930989E-001
 0.954384609653656E-001
 0.906826616821115E-002
 0.106671069831576E-001
 0.481632300783995E-001
 0.663197080673403E-001
 0.166869083322383E-001
 0.400636061614148E-001
 0.633095287647507E+000
 0.117579810471284E+000
 0.319680516150363E-001
 0.200282775802979E+000
 0.656137768673340E-002
 0.624240601474210E-001
 0.141336860951985E+000
 0.916142583024787E-001
 0.416364679046746E-001
 0.622418302065818E-001
 0.123169171654279E-001
 0.100302583294676E+000
 0.262940953696008E+000
 0.270094388631462E-001
 0.109053839040094E-001
 0.553812043948822E+000
 0.664239960374131E+000
 0.110778069581104E+001
 0.101691518714653E+000
 0.562574555233784E-003
 0.200757675743711E+000
 0.118834004707171E+000
 0.433012771297350E-001
 0.216519025034531E+000
 0.261047322749288E-001
 0.895976797479420E-001
 0.894687821873143E-009
 0.195936211636559E-008
 0.480503383985189E-009
 0.986197690668597E-009
 0.128196255150277E-004
 0.741227523115672E-005
 0.183952660860533E-006
 0.125072780282138E-004
 0.290293262321631E-002
 0.179729293854749E-002
 0.231562590015980E-001
 0.975624834813317E-002
 0.153667289223944E-001
 0.371837483661574E-001
 0.177751601564607E-001
 0.167186712414735E-002
 0.111379943958769E-008
 0.978386635042392E-009
 0.112133890135420E-008
 0.107415413112206E-008
 0.122395162303605E-008
 0.114228028946397E-008
 0.954923712691444E-009
 0.107821008308032E-008
 0.481510883774462E-002
 0.627326308192087E-001