# vtk DataFile Version 3.0
Unstructured Grid
ASCII
DATASET UNSTRUCTURED_GRID
FIELD FieldData 1
TIME 1 1 float
  0.380625E+02
POINTS          640 double
 0.000000000000000E+000 0.000000000000000E+000 0.000000000000000E+000
 0.100000000000000E+001 0.000000000000000E+000 0.000000000000000E+000
 0.100000000000000E+001 0.100000000000000E+001 0.000000000000000E+000
 0.000000000000000E+000 0.100000000000000E+001 0.000000000000000E+000
 0.125000000000000E+000 0.250000000000000E+000 0.000000000000000E+000
 0.375000000000000E+000 0.250000000000000E+000 0.000000000000000E+000
 0.375000000000000E+000 0.750000000000000E+000 0.000000000000000E+000
 0.125000000000000E+000 0.750000000000000E+000 0.000000000000000E+000
 0.625000000000000E+000 0.250000000000000E+000 0.000000000000000E+000
 0.875000000000000E+000 0.250000000000000E+000 0.000000000000000E+000
 0.875000000000000E+000 0.750000000000000E+000 0.000000000000000E+000
 0.625000000000000E+000 0.750000000000000E+000 0.000000000000000E+000
 0.100000000000000E+001 0.500000000000000E+000 0.000000000000000E+000
 0.000000000000000E+000 0.500000000000000E+000 0.000000000000000E+000
 0.500000000000000E+000 0.000000000000000E+000 0.000000000000000E+000
 0.125000000000000E+000 0.500000000000000E+000 0.000000000000000E+000
 0.000000000000000E+000 0.750000000000000E+000 0.000000000000000E+000
 0.000000000000000E+000 0.250000000000000E+000 0.000000000000000E+000
 0.000000000000000E+000 0.875000000000000E+000 0.000000000000000E+000
 0.000000000000000E+000 0.125000000000000E+000 0.000000000000000E+000
 0.625000000000000E-001 0.812500000000000E+000 0.000000000000000E+000
 0.125000000000000E+000 0.375000000000000E+000 0.000000000000000E+000
 0.125000000000000E+000 0.625000000000000E+000 0.000000000000000E+000
 0.500000000000000E+000 0.100000000000000E+001 0.000000000000000E+000
 0.250000000000000E+000 0.100000000000000E+001 0.000000000000000E+000
 0.125000000000000E+000 0.100000000000000E+001 0.000000000000000E+000
 0.729166666666667E-001 0.885416666666667E+000 0.000000000000000E+000
 0.000000000000000E+000 0.625000000000000E+000 0.000000000000000E+000
 0.625000000000000E-001 0.562500000000000E+000 0.000000000000000E+000
 0.375000000000000E+000 0.500000000000000E+000 0.000000000000000E+000
 0.375000000000000E+000 0.100000000000000E+001 0.000000000000000E+000
 0.250000000000000E+000 0.000000000000000E+000 0.000000000000000E+000
 0.625000000000000E-001 0.187500000000000E+000 0.000000000000000E+000
 0.143518518518519E+000 0.775462962962963E-001 0.000000000000000E+000
 0.156250000000000E+000 0.156250000000000E+000 0.000000000000000E+000
 0.729166666666667E-001 0.114583333333333E+000 0.000000000000000E+000
 0.125000000000000E+000 0.000000000000000E+000 0.000000000000000E+000
 0.250000000000000E+000 0.250000000000000E+000 0.000000000000000E+000
 0.375000000000000E+000 0.000000000000000E+000 0.000000000000000E+000
 0.187500000000000E+000 0.218750000000000E+000 0.000000000000000E+000
 0.312500000000000E+000 0.762453007518797E-001 0.000000000000000E+000
 0.270259392278489E+000 0.159169301283415E+000 0.000000000000000E+000
 0.365310977506407E+000 0.155367112827996E+000 0.000000000000000E+000
 0.312500000000000E+000 0.216265619131990E+000 0.000000000000000E+000
 0.500000000000000E+000 0.189389379011873E+000 0.000000000000000E+000
 0.426456487258648E+000 0.196919158251449E+000 0.000000000000000E+000
 0.451620395371675E+000 0.941243892751461E-001 0.000000000000000E+000
 0.381804756165356E+000 0.871724813114945E-001 0.000000000000000E+000
 0.437500000000000E+000 0.273708879364394E-001 0.000000000000000E+000
 0.000000000000000E+000 0.375000000000000E+000 0.000000000000000E+000
 0.625000000000000E-001 0.312500000000000E+000 0.000000000000000E+000
 0.250000000000000E+000 0.750000000000000E+000 0.000000000000000E+000
 0.158482142857143E+000 0.851934523809524E+000 0.000000000000000E+000
 0.210861885404568E+000 0.921875000000000E+000 0.000000000000000E+000
 0.136017278952732E+000 0.925863358051789E+000 0.000000000000000E+000
 0.625000000000000E-001 0.687500000000000E+000 0.000000000000000E+000
 0.250000000000000E+000 0.437500000000000E+000 0.000000000000000E+000
 0.247528011619582E+000 0.839830719156545E+000 0.000000000000000E+000
 0.312500000000000E+000 0.796669265575374E+000 0.000000000000000E+000
 0.419664368355990E+000 0.875000000000000E+000 0.000000000000000E+000
 0.313183356674252E+000 0.918387829019328E+000 0.000000000000000E+000
 0.312500000000000E+000 0.100000000000000E+001 0.000000000000000E+000
 0.380617553087688E+000 0.931527612480385E+000 0.000000000000000E+000
 0.187500000000000E+000 0.785936956899548E+000 0.000000000000000E+000
 0.350379273974835E+000 0.857317802397078E+000 0.000000000000000E+000
 0.228046514569416E+000 0.817347524546315E-001 0.000000000000000E+000
 0.187500000000000E+000 0.312500000000000E+000 0.000000000000000E+000
 0.625000000000000E-001 0.437500000000000E+000 0.000000000000000E+000
 0.197916666666667E+000 0.385416666666667E+000 0.000000000000000E+000
 0.375000000000000E+000 0.375000000000000E+000 0.000000000000000E+000
 0.750000000000000E+000 0.000000000000000E+000 0.000000000000000E+000
 0.625000000000000E-001 0.959280303030303E+000 0.000000000000000E+000
 0.234375000000000E+000 0.562500000000000E+000 0.000000000000000E+000
 0.187500000000000E+000 0.687500000000000E+000 0.000000000000000E+000
 0.193892045454545E+000 0.618607954545455E+000 0.000000000000000E+000
 0.375000000000000E+000 0.625000000000000E+000 0.000000000000000E+000
 0.283775504647110E+000 0.640801989544002E+000 0.000000000000000E+000
 0.281298714846257E+000 0.504888901855782E+000 0.000000000000000E+000
 0.331282779604339E+000 0.562500000000000E+000 0.000000000000000E+000
 0.338845441361880E+000 0.687500000000000E+000 0.000000000000000E+000
 0.500000000000000E+000 0.775815254846569E+000 0.000000000000000E+000
 0.625000000000000E-001 0.407196969696970E-001 0.000000000000000E+000
 0.328125000000000E+000 0.437500000000000E+000 0.000000000000000E+000
 0.284143518518519E+000 0.340856481481482E+000 0.000000000000000E+000
 0.312500000000000E+000 0.278356481481482E+000 0.000000000000000E+000
 0.625000000000000E+000 0.500000000000000E+000 0.000000000000000E+000
 0.410581328448014E+000 0.312500000000000E+000 0.000000000000000E+000
 0.543730092976870E+000 0.258404709955172E+000 0.000000000000000E+000
 0.625000000000000E+000 0.375000000000000E+000 0.000000000000000E+000
 0.500000000000000E+000 0.404784409423024E+000 0.000000000000000E+000
 0.590394028376448E+000 0.312500000000000E+000 0.000000000000000E+000
 0.467392923590959E+000 0.261422480241605E+000 0.000000000000000E+000
 0.508234229043035E+000 0.327522431406248E+000 0.000000000000000E+000
 0.625000000000000E+000 0.000000000000000E+000 0.000000000000000E+000
 0.537311919648379E+000 0.110523699730938E+000 0.000000000000000E+000
 0.750000000000000E+000 0.250000000000000E+000 0.000000000000000E+000
 0.593146640296986E+000 0.172723366619635E+000 0.000000000000000E+000
 0.623771215502605E+000 0.890722450407200E-001 0.000000000000000E+000
 0.687500000000000E+000 0.454068088573020E-001 0.000000000000000E+000
 0.793069391389776E+000 0.125000000000000E+000 0.000000000000000E+000
 0.695513657869308E+000 0.162768437982326E+000 0.000000000000000E+000
 0.687500000000000E+000 0.250000000000000E+000 0.000000000000000E+000
 0.875000000000000E+000 0.500000000000000E+000 0.000000000000000E+000
 0.727921748554044E+000 0.101601148842529E+000 0.000000000000000E+000
 0.759582972952604E+000 0.183381972603444E+000 0.000000000000000E+000
 0.875000000000000E+000 0.375000000000000E+000 0.000000000000000E+000
 0.718750000000000E+000 0.343750000000000E+000 0.000000000000000E+000
 0.697916666666667E+000 0.437500000000000E+000 0.000000000000000E+000
 0.750000000000000E+000 0.572048611111111E+000 0.000000000000000E+000
 0.787123226950355E+000 0.408133865248227E+000 0.000000000000000E+000
 0.804687500000000E+000 0.320312500000000E+000 0.000000000000000E+000
 0.700214460784314E+000 0.513965482026144E+000 0.000000000000000E+000
 0.783021635712153E+000 0.493366127722916E+000 0.000000000000000E+000
 0.625000000000000E+000 0.625000000000000E+000 0.000000000000000E+000
 0.848380638879200E+000 0.437500000000000E+000 0.000000000000000E+000
 0.562500000000000E+000 0.404604515401992E-001 0.000000000000000E+000
 0.875000000000000E+000 0.625000000000000E+000 0.000000000000000E+000
 0.750000000000000E+000 0.750000000000000E+000 0.000000000000000E+000
 0.697046765904942E+000 0.621060933265583E+000 0.000000000000000E+000
 0.200520833333333E+000 0.494791666666667E+000 0.000000000000000E+000
 0.429642360217793E+000 0.800955091165693E+000 0.000000000000000E+000
 0.453073336954457E+000 0.687500000000000E+000 0.000000000000000E+000
 0.548183885155829E+000 0.693587592964698E+000 0.000000000000000E+000
 0.750000000000000E+000 0.100000000000000E+001 0.000000000000000E+000
 0.573843760532799E+000 0.437500000000000E+000 0.000000000000000E+000
 0.500000000000000E+000 0.550126792242997E+000 0.000000000000000E+000
 0.511972906944656E+000 0.477455600833011E+000 0.000000000000000E+000
 0.437507615834863E+000 0.452402202857321E+000 0.000000000000000E+000
 0.546458141439317E+000 0.614345103225503E+000 0.000000000000000E+000
 0.571440414895569E+000 0.547357897962524E+000 0.000000000000000E+000
 0.450991397292447E+000 0.610087136082382E+000 0.000000000000000E+000
 0.875000000000000E+000 0.000000000000000E+000 0.000000000000000E+000
 0.100000000000000E+001 0.250000000000000E+000 0.000000000000000E+000
 0.100000000000000E+001 0.375000000000000E+000 0.000000000000000E+000
 0.687500000000000E+000 0.700324699898860E+000 0.000000000000000E+000
 0.812500000000000E+000 0.687500000000000E+000 0.000000000000000E+000
 0.804621866531165E+000 0.617121866531165E+000 0.000000000000000E+000
 0.825181931429427E+000 0.549770415540467E+000 0.000000000000000E+000
 0.100000000000000E+001 0.625000000000000E+000 0.000000000000000E+000
 0.100000000000000E+001 0.750000000000000E+000 0.000000000000000E+000
[...]
CELL_DATA         1212
SCALARS tdens double 1
LOOKUP_TABLE default
 0.506515749555497E-006
 0.203434547352542E-006
 0.272219051810686E-006
 0.267697838742502E-006
 0.282179473791962E-005
 0.588912719425787E-005
 0.249360081586827E-005
 0.299765878861208E-005
 0.239715758565002E+000
 0.548516156335903E-001
 0.127567149680045E+000
 0.276660713273109E+000
 0.156228410135535E-006
 0.139855537391938E-006
 0.110498630795244E-006
 0.122128498166322E-006
 0.202269048862545E-006
 0.508977216254030E-006
 0.272966877818283E-006
 0.268071579039412E-006
 0.255171154840051E-006
 0.417235967927237E-006
 0.408665180978215E-006
 0.340631264772457E-006
 0.826771645773169E-006
 0.519162370251660E-006
 0.581042092544324E-006
 0.627912674829464E-006
 0.400196592893584E-004
 0.148499832316776E-004
 0.575544157652819E-005
 0.147715901505013E-004
 0.230151860223387E-001
 0.403842260076028E+000
 0.601734427349240E-002
 0.975697771242561E-001
 0.961211179893482E-007
 0.852500399971814E-007
 0.928570924589628E-007
 0.898400130446380E-007
 0.650842247255062E-005
 0.313066151897592E-005
 0.540173213033047E-005
 0.522140086445111E-005
 0.354984946279079E-006
 0.435902852906072E-006
 0.510467816648974E-006
 0.426243267970178E-006
 0.286499481010972E-005
 0.323717411782943E-005
 0.589599085970671E-006
 0.161344263672783E-005
 0.545731832810080E+000
 0.166286551812189E+000
 0.492879053709761E-001
 0.245056293845827E+000
 0.127424493608434E-005
 0.120984668213499E-005
 0.139460291003105E-005
 0.128069891680424E-005
 0.497530803574598E-001
 0.627853064321087E-001
 0.159942135566863E+001
 0.112632654900426E+000
 0.131312387843458E-006
 0.997911383036356E-007
 0.101481429937332E-006
 0.106284580645181E-006
 0.143109775953188E-006
 0.158206066888681E-006
 0.180216913235654E-006
 0.161024424913053E-006
 0.163010420217658E-006
 0.202253189589049E-006
 0.101308603899710E-006
 0.127857836042428E-006
 0.133776877567934E+000
 0.186943738241719E+000
 0.134205712720661E-001
 0.244058661393651E+000
 0.564085615892897E-005
 0.125479744974315E-005
 0.460288516234110E-005
 0.294927742823863E-005
 0.110068926778049E-006
 0.943092403635609E-007
 0.858397468791779E-007
 0.913620959968803E-007
 0.267076438681571E-001
 0.139692190905855E+000
 0.733313576285764E-002
 0.457438310101850E-001
 0.220910721662800E-006
 0.187515820588055E-006
 0.193029861629304E-006
 0.203206672798933E-006
 0.130053018455508E-006
 0.100410319232393E-006
 0.102783265137164E-006
 0.107032243850256E-006
 0.696499654077406E-006
 0.857813586059144E-006
 0.151354452889446E-005
 0.917882258142245E-006
 0.207117431058288E-006
 0.179195105217088E-006
 0.231347177358061E-006
 0.200771048240000E-006
 0.261280342017503E-001
 0.293684514805690E-001
 0.237263309583217E+000
 0.228949889323159E-001
 0.772274532605232E-006
 0.184624198006224E-006
 0.237683634031002E-006
 0.284067161563380E-006
 0.467309410452211E-005
 0.294270520398219E-004
 0.909899097717798E-005
 0.729838236356032E-005
 0.474984720516208E-006
 0.257565955272820E-006
 0.314912212718549E-006
 0.333263056483689E-006
 0.435448158198486E-006
 0.183983319044117E-006
 0.180093321315955E-006
 0.222140353916756E-006
 0.650486976579410E-002
 0.493320094961587E-001
 0.565067443092596E-002
 0.286209211593054E-001
 0.213959873581575E-005
 0.113710013435574E-005
 0.307097575056177E-005
 0.210745108845978E-005
 0.355079856053354E-005
 0.840733111264192E-005
 0.331280022688762E-005
 0.389604594078181E-005
 0.222952704139858E-006
 0.279033201165772E-006
 0.382188804110262E-006
 0.291241213633462E-006
 0.151744494483410E-006
 0.995669537275985E-007
 0.128931707923697E-006
 0.120973055504382E-006
 0.716519977522189E-006
 0.373829180529130E-006
 0.129848939652691E-005
 0.639833913247999E-006
 0.347596222983584E-006
 0.548044258013279E-006
 0.498303765766046E-006
 0.453487637214457E-006
 0.963384310067519E-007
 0.856142706582882E-007
 0.934957239487233E-007
 0.904980790437597E-007
 0.132900438673384E-006
 0.101780185088658E-006
 0.100323183287453E-006
 0.106831246873014E-006
 0.170357695430522E-006
 0.160030847985655E-006
 0.101196977262833E-006
 0.125287490009638E-006
 0.497879901879856E+000
 0.172848458867290E+000
 0.502585850465574E-001
 0.419467185005082E+000
 0.345746316896029E-001
 0.434532523436686E-001
 0.241033239238660E+001
 0.356976205991915E-001
 0.230092724997550E+000
 0.687457929189348E-001
 0.179262164668729E+000
 0.398856133815161E-001
 0.139980679559678E-005
 0.160850066679167E-005
 0.190723222740767E-005
 0.161561768764058E-005
 0.129177788041283E-005
 0.370485056482518E-006
 0.739604781174310E-006
 0.647015274368088E-006
 0.293708815148088E-006
 0.255923554317284E-006
 0.484265093491992E-006
 0.324506141181289E-006
 0.194172165058914E-006
 0.187193898088783E-006
 0.220783551679365E-006
 0.203366989945200E-006
 0.108193900702977E-005
 0.168404267463223E-005
 0.840648380974772E-006
 0.110769316296949E-005
 0.230392391566211E-006
 0.178571666574994E-006
 0.205973244017628E-006
 0.199942883114927E-006
 0.521120002638209E-006
 0.794062262535328E-006
 0.625580295680938E-006
 0.643237661736744E-006
 0.153429513634157E-006
 0.180303512597050E-006
 0.229743583793247E-006
 0.187473968133422E-006
 0.124649112813953E-006
 0.139657107731844E-006
 0.975676614282111E-007
 0.114827837644397E-006
 0.231043094216409E-006
 0.367089608214742E-006
 0.285936266259609E-006
 0.287649170847017E-006
 0.381963986506636E-006
 0.570065909589700E-006
 0.603241629107546E-006
 0.507003259298592E-006
 0.123210604875079E-005
 0.157223892893694E-005
 0.145129156459254E-005
 0.142531775899636E-005
 0.130513725617937E-005
 0.246030409905892E-005
 0.353337253840726E-005
 0.234015071808533E-005
 0.958469275574424E-004
 0.199816791399469E-004
 0.182876399969858E-004
 0.203643266107360E-004
 0.259933332356814E-004
 0.723568165189664E-004
 0.807544783178784E-004
 0.729272269999175E-004
 0.137007642637517E-004
 0.374617927902382E-004
 0.709262323460573E-005
 0.147543109916958E-004
 0.204640427272084E-006
 0.161998151629466E-006
 0.242163925588430E-006
 0.196293712164571E-006
 0.608648335633385E-004
 0.410807696254741E-004
 0.136227731156917E-004
 0.278682958987246E-004
 0.767309326504779E-005
 0.377375362537021E-004
 0.173507436407600E-004
 0.170039265873323E-004
 0.586349167987701E-006
 0.820482265091545E-006
 0.830874858114915E-006
 0.728432728075374E-006
 0.232720545527774E-005
 0.138292384504949E-005
 0.274712804670453E-005
 0.215946584819308E-005
 0.988830570312372E-006
 0.112847079610719E-005
 0.125274850775469E-005
 0.108474895420501E-005
 0.134579820026452E-002
 0.307906341725440E-002
 0.202441465573747E-001
 0.166030929431816E-002
 0.188159619219221E-004
 0.443942238652405E-005
 0.134777164783764E-004
 0.147921184763613E-004
 0.497719472416395E-005
 0.114875875284917E-004
 0.402033506816381E-005
 0.527794361105781E-005
 0.652916881911461E-005
 0.689741409696102E-005
 0.272286722486501E-005
 0.592824688923878E-005
 0.742147002310320E-006
 0.812148515654220E-006
 0.576680492499763E-006
 0.705147550592108E-006
 0.264417142781962E-005
 0.718889791596888E-005
 0.431371362571327E-005
 0.403044461144693E-005
 0.189714894518671E-004
 0.836572601758030E-004
 0.925764943498439E-004
 0.840397433579716E-004
 0.163614788573493E-005
 0.260393639062744E-005
 0.135171572135339E-005
 0.168342906949089E-005
 0.140202123376292E-006
 0.125228088262781E-006
 0.977588153659898E-007
 0.115223200436984E-006
 0.933194730471675E-006
 0.124037670579251E-005
 0.103073317507080E-005
 0.104932309720446E-005
 0.203062679871277E-005
 0.285105984071359E-005
 0.177324079049519E-005
 0.208829115466940E-005
 0.100805547845466E-005
 0.113458998023626E-005
 0.111397801596367E-005
 0.109461528997667E-005
 0.118310263537932E-005
 0.147555283353476E-005
 0.120086108337117E-005
 0.125001168797825E-005
 0.117390552105214E-006
 0.156493125389880E-006
 0.144917103274076E-006
 0.134992382160247E-006
 0.148312612246045E-006
 0.111952014067378E-006
 0.138382439063741E-006
 0.121765676828895E-006
 0.723899176086595E-006
 0.236809376494343E-006
 0.178021420133220E-006
 0.267256238106076E-006
 0.499081689213289E-005
 0.405586633075738E-005
 0.113828707828872E-005
 0.265960826468237E-005
 0.150296086760439E-005
 0.108926393477747E-005
 0.747416900867124E-006
 0.107394323016148E-005
 0.295017119378856E-006
 0.471959748882522E-006
 0.256612670905053E-006
 0.324043604453198E-006
 0.688332863493500E+000
 0.337965863641406E+000
 0.111240200728696E+000
 0.554751313447174E+000
 0.568085946117447E-006
 0.842693876403228E-006
 0.684071491967826E-006
 0.652585052331410E-006
 0.152762367184464E-006
 0.220509191090570E-006
 0.180441833221097E-006
 0.184126975190131E-006
 0.454506112832016E-006
 0.294938584508406E-006
 0.253821356733717E-006
 0.320635183323723E-006
 0.153798905410919E-006
 0.115033915923522E-006
 0.143109114040326E-006
 0.132209496104212E-006
 0.441617822474230E-006
 0.178210791582675E-006
 0.185031420603035E-006
 0.222377448223256E-006
 0.168219092686026E+000
 0.553970997428506E-001
 0.177835860815203E+000
 0.110170204038948E+000
 0.556555480508639E-002
 0.635769459426791E-001
 0.639212824770892E-002
 0.379282935903117E-001
 0.175137201971938E-004
 0.604559980972577E-004
 0.585933476970200E-004
 0.581911098129299E-004
 0.233401147073229E-005
 0.140170370987409E-005
 0.215736451014906E-005
 0.196385388760406E-005
 0.104637947346801E-004
 0.419894358788370E-005
 0.193304707234257E-004
 0.120049494748444E-004
 0.397393755322175E-005
 0.112712826536035E-004
 0.172356106139406E-004
 0.103140106523023E-004
 0.121392382300450E-005
 0.135806854591796E-005
 0.101320127594292E-005
 0.121754273683150E-005
 0.377922648465422E-005
 0.343883233632540E-005
 0.821335036993210E-005
 0.409898791224484E-005
 0.141866986845054E-005
 0.132901170572221E-005
 0.214202310649096E-005
 0.150773077884673E-005
 0.150428074932401E-005
 0.221184060093768E-005
 0.166491017577970E-005
 0.172898988286534E-005
 0.108527395889824E-005
 0.776829598765489E-006
 0.982683148685849E-006
 0.953944976061697E-006
 0.805102078709156E-006
 0.106610359291356E-005
 0.922354067228120E-006
 0.887540054877112E-006
 0.406787874415057E-004
 0.851103702477749E-004
 0.126979134796488E-004
 0.282546332116572E-004
 0.451007581122226E-005
 0.851834296396161E-005
 0.331839026105161E-004
 0.705174751424091E-005
 0.376767807856397E-004
 0.602957974866625E-005
 0.125586323977930E-004
 0.127129111685626E-004
 0.156837196091471E-005
 0.236678644775247E-005
 0.237880551938135E-005
 0.217433507850644E-005
 0.974604834185246E-006
 0.807387457237301E-006
 0.172230853741207E-005
 0.106116191413174E-005
 0.108971760836269E+001
 0.705890916362749E+000
 0.158487333370449E-001
 0.132444435110196E+001
 0.277045188221355E-001
 0.690464091216931E-002
 0.166795536504901E+000
 0.509846570747026E-001
 0.892294597087088E-006
 0.117777094119916E-005
 0.915295233947871E-006
 0.974429184042856E-006
 0.426786976548853E-001
 0.177193255112607E+000
 0.466152254859872E+000
 0.257740909739211E+000
 0.428998399152527E-001
 0.109070997658950E+000
 0.797059584151659E-001
 0.455429134355939E-001
 0.316838850232151E-001
 0.485710548773001E+000
 0.219017150180244E+000
 0.359956534885658E+000
 0.242659248793673E+000
 0.206640244533725E+000
 0.354416275375558E+000
 0.278168678711778E+000
 0.199111121563611E-005
 0.403791836307597E-005
 0.251576389966468E-005
 0.258948627448214E-005
 0.854960673687885E-007
 0.971313327165625E-007
 0.938001224731126E-007
 0.906826445465846E-007
 0.114024166397143E-006
 0.856691005165167E-007
 0.945721570686075E-007
 0.915961969335666E-007
 0.158495889150286E+000
 0.241490063073719E+000
 0.171377756230557E-001
 0.223836648308502E+000
 0.231204350183657E-006
 0.161231413161756E-006
 0.203438840640075E-006
 0.192677985612613E-006
 0.936695152116618E-001
 0.207377598792702E+000
 0.193871066850716E+000
 0.368424592017939E+000
 0.433140881007732E-001
 0.942042691801452E-001
 0.117655743807391E+000
 0.465169532851425E-001
 0.658338593025647E-002
 0.581987615652771E-002
 0.518781086821596E-001
 0.297356802381623E-001
 0.581656332724399E-002
 0.637627111711644E-001
 0.534509491677529E-002
 0.356990890214133E-001
 0.163791327110289E-001
 0.202742558399410E-001
 0.199104908413534E-001
 0.204253025588735E-001
 0.719172436748173E-001
 0.438553201674255E-001
 0.591603029345535E+000
 0.833975017581372E-001
 0.725638978791361E+000
 0.297785685381171E+000
 0.272738651892466E-001
 0.651789162046005E+000
 0.457933625738905E-001
 0.105653734699357E+000
 0.120532923291992E+001
 0.499888658945204E-001
 0.776301627927736E-001
 0.734254992597616E-001
 0.360615453475233E+000
 0.464833900704945E-001
 0.785075441646549E-001
 0.925404264417917E-001
 0.328465993799044E+000
 0.915195282232434E-001
 0.292763195380634E-001
 0.954805186595183E-001
 0.964701491375166E-001
 0.996985095530586E-001
 0.452362816874010E-001
 0.118237782226276E+001
 0.612165242234613E+000
 0.103443311370198E+001
 0.160001366497710E+001
 0.106973052479979E+000
 0.214547910109029E+001
 0.183085089577594E+001
 0.313238448229021E+000
 0.145629180692629E-001
 0.199831333705771E+000
 0.331058036956961E+000
 0.612856053238184E-002
 0.169524094473579E+000
 0.924785230377946E-002
 0.345137008257198E-001
 0.126745517529932E-001
 0.161440632480076E-001
 0.596581408089677E+000
 0.106816950708654E-001
 0.281020784250593E-004
 0.192928018847539E-004
 0.138097946703020E-003
 0.255996404959760E-004
 0.157524566640596E-006
 0.142312523864650E-006
 0.179225839707863E-006
 0.160200057443227E-006
 0.993421607871199E-007
 0.150094101080959E-006
 0.128288329943096E-006
 0.120436890686345E-006
 0.237822953737217E-001
 0.123915260559938E+000
 0.261917893044726E-001
 0.264050239249129E-001
 0.518880438897980E+000
 0.335894850304018E+000
 0.301287695569615E+000
 0.322273221302125E+000
 0.177024798702907E-001
 0.756628813231957E+000
 0.274394782838279E-001
 0.551668226682207E-001
 0.598283186641636E+000
 0.116623538106500E+001
 0.389348290821604E+000
 0.769108181639893E+000
 0.234474322012274E-002
 0.382052690825082E-002
 0.402974120862608E-001
 0.130906119969941E-001
 0.111109600500299E+001
 0.745496246735462E-001
 0.193246862897991E-001
 0.179578258076683E+000
 0.235035646811904E+001
 0.115928522104284E-001
 0.338869567456493E+001
 0.408989143057152E+001
 0.230762834902862E-002
 0.837035693952314E-004
 0.598133022545933E-004
 0.730678083380710E-004
 0.181554102382293E+001
 0.305004255288911E-001
 0.197152893719482E-001
 0.139155266006406E-001
 0.116572331145793E-003
 0.742233010905832E-004
 0.204233100620616E-004
 0.826085733392941E-004
 0.115329109749155E-004
 0.720035828838056E-004
 0.157345257315505E-004
 0.160781751835687E-004
 0.602874995729899E-002
 0.102197568757124E-001
 0.952762163412225E-003
 0.972383892874737E-002
 0.290288949250062E-001
 0.845903010079533E+000
 0.105172485039955E+000
 0.199300614719234E+000
 0.316719283732060E-001
 0.189851542226909E-001
 0.847097548937907E+000
 0.509553838929179E-001
 0.244323538008894E-001
 0.192728482545961E-001
 0.352839219494814E-001
 0.263332535038779E-001
 0.838944235819949E+000
 0.488772475539672E-001
 0.485369256810573E-001
 0.435584671832010E-001
 0.522528504846262E-001
 0.147319112405574E+001
 0.437358085115534E-001
 0.270760565006851E-001
 0.272047909504956E-001
 0.284941159418491E+001
 0.353812786835145E+001
 0.353739227794755E+001
 0.849936898604148E-002
 0.101745811278882E-002
 0.997132013474968E-003
 0.845491715346513E-003
 0.281136870487931E-002
 0.128560371900320E-002
 0.191323495134120E-001
 0.145834623051804E-002
 0.104602238393616E-001
 0.640442313738315E-002
 0.926230621656265E-003
 0.987074577289435E-002
 0.233294072440195E-001
 0.298032667390117E-001
 0.417409335588295E+001
 0.174099134507871E-001
 0.373174129190742E-006
 0.304793716205848E-006
 0.581868673599092E-006
 0.391215561811777E-006
 0.204894520523213E-005
 0.336788738913706E-005
 0.425705845959004E-005
 0.312252066658582E-005
 0.123368017762544E-005
 0.177559441407169E-005
 0.163923716945549E-005
 0.154682675378130E-005
 0.167470322252279E-005
 0.120281323006055E-005
 0.127589421025310E-005
 0.132741466584969E-005
 0.375704297886167E-004
 0.315365620238155E-004
 0.702194604501115E-005
 0.331740482646526E-004
 0.663448814127423E-005
 0.385693134115920E-004
 0.912295678730592E-005
 0.977104465513916E-005
 0.154047894588196E-005
 0.185485846347122E-005
 0.132940191921282E-005
 0.155783410547865E-005
 0.114986701959813E-004
 0.576213331700208E-004
 0.769902296176830E-004
 0.564998228688724E-004
 0.475808598700619E-006
 0.430270047232657E-006
 0.724336897949071E-006
 0.519808678197858E-006
 0.341675052055988E+000
 0.136625179929593E+000
 0.163938886299725E+000
 0.264049722644295E+000
 0.137051875742951E-005
 0.243696164562817E-005
 0.162983311193184E-005
 0.170547052114594E-005
 0.111240585885769E-006
 0.187067561401276E-006
 0.190510756910802E-006
 0.149854902273183E-006
 0.599755353514842E-004
 0.728153330659996E-005
 0.288623625738599E-004
 0.143364175657159E-004
 0.106790336352739E-005
 0.127731425874441E-005
 0.905379335230661E-006
 0.108160007926814E-005
 0.262412471067926E-005
 0.265973425228707E-005
 0.145147213933910E-005
 0.233951926092499E-005
 0.661805303847150E-005
 0.342854373702663E-004
 0.600345388503867E-005
 0.681003743216261E-005
 0.620685226704182E-002
 0.530883644509141E-001
 0.714790760967255E-002
 0.335505214838793E-001
 0.324925957766274E+000
 0.155395293335664E+001
 0.785282862711783E+000
 0.969457414603346E+000
 0.266686846840635E-001
 0.239553747209805E+000
 0.335256368417434E+000
 0.342641632107386E+000
 0.560131598359675E-006
 0.818014887723502E-006
 0.746189573911985E-006
 0.667241088288851E-006
 0.225161349457781E-005
 0.124403787135316E-005
 0.112098154339940E-005
 0.137241176116265E-005
 0.237288291796641E-005
 0.109476877681746E-005
 0.106431060459868E-005
 0.131548264139674E-005
 0.390062861254662E-004
 0.787945850081265E-005
 0.420686691405956E-004
 0.366647542807655E-004
 0.245384752871336E-001
 0.284377043828025E-001
 0.114021058946902E+000
 0.323657945416397E-001
 0.728441299908596E+000
 0.316988778032836E-001
 0.384072757847240E+000
 0.662554924373231E+000
 0.285536818419791E+000
 0.571936039095600E+000
 0.281889194617721E+000
 0.333502024812655E+000
 0.855752743317023E-007
 0.105971667050554E-006
 0.934590072765853E-007
 0.911757946006130E-007
 0.178580920388091E-006
 0.262816841116014E-006
 0.788021201868184E-006
 0.273397182719958E-006
 0.302415883063703E-001
 0.933620972661325E-001
 0.272594733499944E-001
 0.280667624273424E-001
 0.316200224160826E-001
 0.405717342191799E-001
 0.831541839058572E-001
 0.336607595800322E-001
 0.120188790905075E+000
 0.676538996094904E-001
 0.447052976208547E-001
 0.613819706390501E-001
 0.870950243830601E-002
 0.168796057778871E-001
 0.637828400987212E-001
 0.692449902841557E-001
 0.392927450996263E-001
 0.456464744781859E-001
 0.498045519239510E+000
 0.743226021851313E-001
 0.315517964247764E-001
 0.191410006214241E+000
 0.730572493730836E-002
 0.605621963212111E-001
 0.142953079991520E+000
 0.109897275098481E+000
 0.415181348967108E-001
 0.588446462491134E-001
 0.327071344036276E-001
 0.135945543643695E+000
 0.163680583838423E+000
 0.125494172547241E+000
 0.388648513297778E-001
 0.464011249274884E+000
 0.648334561925150E+000
 0.886858589494527E+000
 0.864010773184037E-001
 0.264441102033938E-001
 0.156024146263658E+000
 0.108106783774378E+000
 0.341588709385855E-001
 0.182986058309570E+000
 0.499622164886246E-001
 0.705344422862554E-001
 0.974670478900052E-006
 0.211179927640511E-005
 0.533727161551213E-006
 0.107363328142021E-005
 0.210587517711552E-002
 0.153766200443209E-002
 0.921299711924076E-004
 0.228788501036253E-002
 0.309899283869058E-002
 0.238028219673919E-002
 0.207458033004732E-001
 0.969814166094468E-002
 0.166253017194892E-001
 0.330341720077617E-001
 0.904773568120825E-002
 0.252588425908749E-001
 0.114008578391984E-005
 0.101353482818559E-005
 0.114725654223464E-005
 0.110353708263889E-005
 0.124714321706891E-005
 0.116732314725249E-005
 0.991521500556713E-006
 0.110802163469185E-005
 0.188126771108189E-001
 0.489505298807349E-001