# vtk DataFile Version 3.0
Unstructured Grid
ASCII
DATASET UNSTRUCTURED_GRID
FIELD FieldData 1
TIME 1 1 float
  0.121875E+02
POINTS          640 double
 0.000000000000000E+000 0.000000000000000E+000 0.000000000000000E+000
 0.100000000000000E+001 0.000000000000000E+000 0.000000000000000E+000
 0.100000000000000E+001 0.100000000000000E+001 0.000000000000000E+000
 0.000000000000000E+000 0.100000000000000E+001 0.000000000000000E+000
 0.125000000000000E+000 0.250000000000000E+000 0.000000000000000E+000
 0.375000000000000E+000 0.250000000000000E+000 0.000000000000000E+000
 0.375000000000000E+000 0.750000000000000E+000 0.000000000000000E+000
 0.125000000000000E+000 0.750000000000000E+000 0.000000000000000E+000
 0.625000000000000E+000 0.250000000000000E+000 0.000000000000000E+000
 0.875000000000000E+000 0.250000000000000E+000 0.000000000000000E+000
 0.875000000000000E+000 0.750000000000000E+000 0.000000000000000E+000
 0.625000000000000E+000 0.750000000000000E+000 0.000000000000000E+000
 0.100000000000000E+001 0.500000000000000E+000 0.000000000000000E+000
 0.000000000000000E+000 0.500000000000000E+000 0.000000000000000E+000
 0.500000000000000E+000 0.000000000000000E+000 0.000000000000000E+000
 0.125000000000000E+000 0.500000000000000E+000 0.000000000000000E+000
 0.000000000000000E+000 0.750000000000000E+000 0.000000000000000E+000
 0.000000000000000E+000 0.250000000000000E+000 0.000000000000000E+000
 0.000000000000000E+000 0.875000000000000E+000 0.000000000000000E+000
 0.000000000000000E+000 0.125000000000000E+000 0.000000000000000E+000
 0.625000000000000E-001 0.812500000000000E+000 0.000000000000000E+000
 0.125000000000000E+000 0.375000000000000E+000 0.000000000000000E+000
 0.125000000000000E+000 0.625000000000000E+000 0.000000000000000E+000
 0.500000000000000E+000 0.100000000000000E+001 0.000000000000000E+000
 0.250000000000000E+000 0.100000000000000E+001 0.000000000000000E+000
 0.125000000000000E+000 0.100000000000000E+001 0.000000000000000E+000
 0.729166666666667E-001 0.885416666666667E+000 0.000000000000000E+000
 0.000000000000000E+000 0.625000000000000E+000 0.000000000000000E+000
 0.625000000000000E-001 0.562500000000000E+000 0.000000000000000E+000
 0.375000000000000E+000 0.500000000000000E+000 0.000000000000000E+000
 0.375000000000000E+000 0.100000000000000E+001 0.000000000000000E+000
 0.250000000000000E+000 0.000000000000000E+000 0.000000000000000E+000
 0.625000000000000E-001 0.187500000000000E+000 0.000000000000000E+000
 0.143518518518519E+000 0.775462962962963E-001 0.000000000000000E+000
 0.156250000000000E+000 0.156250000000000E+000 0.000000000000000E+000
 0.729166666666667E-001 0.114583333333333E+000 0.000000000000000E+000
 0.125000000000000E+000 0.000000000000000E+000 0.000000000000000E+000
 0.250000000000000E+000 0.250000000000000E+000 0.000000000000000E+000
 0.375000000000000E+000 0.000000000000000E+000 0.000000000000000E+000
 0.187500000000000E+000 0.218750000000000E+000 0.000000000000000E+000
 0.312500000000000E+000 0.762453007518797E-001 0.000000000000000E+000
 0.270259392278489E+000 0.159169301283415E+000 0.000000000000000E+000
 0.365310977506407E+000 0.155367112827996E+000 0.000000000000000E+000
 0.312500000000000E+000 0.216265619131990E+000 0.000000000000000E+000
 0.500000000000000E+000 0.189389379011873E+000 0.000000000000000E+000
 0.426456487258648E+000 0.196919158251449E+000 0.000000000000000E+000
 0.451620395371675E+000 0.941243892751461E-001 0.000000000000000E+000
 0.381804756165356E+000 0.871724813114945E-001 0.000000000000000E+000
 0.437500000000000E+000 0.273708879364394E-001 0.000000000000000E+000
 0.000000000000000E+000 0.375000000000000E+000 0.000000000000000E+000
 0.625000000000000E-001 0.312500000000000E+000 0.000000000000000E+000
 0.250000000000000E+000 0.750000000000000E+000 0.000000000000000E+000
 0.158482142857143E+000 0.851934523809524E+000 0.000000000000000E+000
 0.210861885404568E+000 0.921875000000000E+000 0.000000000000000E+000
 0.136017278952732E+000 0.925863358051789E+000 0.000000000000000E+000
 0.625000000000000E-001 0.687500000000000E+000 0.000000000000000E+000
 0.250000000000000E+000 0.437500000000000E+000 0.000000000000000E+000
 0.247528011619582E+000 0.839830719156545E+000 0.000000000000000E+000
 0.312500000000000E+000 0.796669265575374E+000 0.000000000000000E+000
 0.419664368355990E+000 0.875000000000000E+000 0.000000000000000E+000
 0.313183356674252E+000 0.918387829019328E+000 0.000000000000000E+000
 0.312500000000000E+000 0.100000000000000E+001 0.000000000000000E+000
 0.380617553087688E+000 0.931527612480385E+000 0.000000000000000E+000
 0.187500000000000E+000 0.785936956899548E+000 0.000000000000000E+000
 0.350379273974835E+000 0.857317802397078E+000 0.000000000000000E+000
 0.228046514569416E+000 0.817347524546315E-001 0.000000000000000E+000
 0.187500000000000E+000 0.312500000000000E+000 0.000000000000000E+000
 0.625000000000000E-001 0.437500000000000E+000 0.000000000000000E+000
 0.197916666666667E+000 0.385416666666667E+000 0.000000000000000E+000
 0.375000000000000E+000 0.375000000000000E+000 0.000000000000000E+000
 0.750000000000000E+000 0.000000000000000E+000 0.000000000000000E+000
 0.625000000000000E-001 0.959280303030303E+000 0.000000000000000E+000
 0.234375000000000E+000 0.562500000000000E+000 0.000000000000000E+000
 0.187500000000000E+000 0.687500000000000E+000 0.000000000000000E+000
 0.193892045454545E+000 0.618607954545455E+000 0.000000000000000E+000
 0.375000000000000E+000 0.625000000000000E+000 0.000000000000000E+000
 0.283775504647110E+000 0.640801989544002E+000 0.000000000000000E+000
 0.281298714846257E+000 0.504888901855782E+000 0.000000000000000E+000
 0.331282779604339E+000 0.562500000000000E+000 0.000000000000000E+000
 0.338845441361880E+000 0.687500000000000E+000 0.000000000000000E+000
 0.500000000000000E+000 0.775815254846569E+000 0.000000000000000E+000
 0.625000000000000E-001 0.407196969696970E-001 0.000000000000000E+000
 0.328125000000000E+000 0.437500000000000E+000 0.000000000000000E+000
 0.284143518518519E+000 0.340856481481482E+000 0.000000000000000E+000
 0.312500000000000E+000 0.278356481481482E+000 0.000000000000000E+000
 0.625000000000000E+000 0.500000000000000E+000 0.000000000000000E+000
 0.410581328448014E+000 0.312500000000000E+000 0.000000000000000E+000
 0.543730092976870E+000 0.258404709955172E+000 0.000000000000000E+000
 0.625000000000000E+000 0.375000000000000E+000 0.000000000000000E+000
 0.500000000000000E+000 0.404784409423024E+000 0.000000000000000E+000
 0.590394028376448E+000 0.312500000000000E+000 0.000000000000000E+000
 0.467392923590959E+000 0.261422480241605E+000 0.000000000000000E+000
 0.508234229043035E+000 0.327522431406248E+000 0.000000000000000E+000
 0.625000000000000E+000 0.000000000000000E+000 0.000000000000000E+000
 0.537311919648379E+000 0.110523699730938E+000 0.000000000000000E+000
 0.750000000000000E+000 0.250000000000000E+000 0.000000000000000E+000
 0.593146640296986E+000 0.172723366619635E+000 0.000000000000000E+000
 0.623771215502605E+000 0.890722450407200E-001 0.000000000000000E+000
 0.687500000000000E+000 0.454068088573020E-001 0.000000000000000E+000
 0.793069391389776E+000 0.125000000000000E+000 0.000000000000000E+000
 0.695513657869308E+000 0.162768437982326E+000 0.000000000000000E+000
 0.687500000000000E+000 0.250000000000000E+000 0.000000000000000E+000
 0.875000000000000E+000 0.500000000000000E+000 0.000000000000000E+000
 0.727921748554044E+000 0.101601148842529E+000 0.000000000000000E+000
 0.759582972952604E+000 0.183381972603444E+000 0.000000000000000E+000
 0.875000000000000E+000 0.375000000000000E+000 0.000000000000000E+000
 0.718750000000000E+000 0.343750000000000E+000 0.000000000000000E+000
 0.697916666666667E+000 0.437500000000000E+000 0.000000000000000E+000
 0.750000000000000E+000 0.572048611111111E+000 0.000000000000000E+000
 0.787123226950355E+000 0.408133865248227E+000 0.000000000000000E+000
 0.804687500000000E+000 0.320312500000000E+000 0.000000000000000E+000
 0.700214460784314E+000 0.513965482026144E+000 0.000000000000000E+000
 0.783021635712153E+000 0.493366127722916E+000 0.000000000000000E+000
 0.625000000000000E+000 0.625000000000000E+000 0.000000000000000E+000
 0.848380638879200E+000 0.437500000000000E+000 0.000000000000000E+000
 0.562500000000000E+000 0.404604515401992E-001 0.000000000000000E+000
 0.875000000000000E+000 0.625000000000000E+000 0.000000000000000E+000
 0.750000000000000E+000 0.750000000000000E+000 0.000000000000000E+000
 0.697046765904942E+000 0.621060933265583E+000 0.000000000000000E+000
 0.200520833333333E+000 0.494791666666667E+000 0.000000000000000E+000
 0.429642360217793E+000 0.800955091165693E+000 0.000000000000000E+000
 0.453073336954457E+000 0.687500000000000E+000 0.000000000000000E+000
 0.548183885155829E+000 0.693587592964698E+000 0.000000000000000E+000
 0.750000000000000E+000 0.100000000000000E+001 0.000000000000000E+000
 0.573843760532799E+000 0.437500000000000E+000 0.000000000000000E+000
 0.500000000000000E+000 0.550126792242997E+000 0.000000000000000E+000
 0.511972906944656E+000 0.477455600833011E+000 0.000000000000000E+000
 0.437507615834863E+000 0.452402202857321E+000 0.000000000000000E+000
 0.546458141439317E+000 0.614345103225503E+000 0.000000000000000E+000
 0.571440414895569E+000 0.547357897962524E+000 0.000000000000000E+000
 0.450991397292447E+000 0.610087136082382E+000 0.000000000000000E+000
 0.875000000000000E+000 0.000000000000000E+000 0.000000000000000E+000
 0.100000000000000E+001 0.250000000000000E+000 0.000000000000000E+000
 0.100000000000000E+001 0.375000000000000E+000 0.000000000000000E+000
 0.687500000000000E+000 0.700324699898860E+000 0.000000000000000E+000
 0.812500000000000E+000 0.687500000000000E+000 0.000000000000000E+000
 0.804621866531165E+000 0.617121866531165E+000 0.000000000000000E+000
 0.825181931429427E+000 0.549770415540467E+000 0.000000000000000E+000
 0.100000000000000E+001 0.625000000000000E+000 0.000000000000000E+000
 0.100000000000000E+001 0.750000000000000E+000 0.000000000000000E+000
[...]
CELL_DATA         1212
SCALARS tdens double 1
LOOKUP_TABLE default
 0.694713574074443E-001
 0.619349540373498E-001
 0.631041737220223E-001
 0.643018351164908E-001
 0.111134580819110E+000
 0.126479385129040E+000
 0.108689723234082E+000
 0.114717671621377E+000
 0.169320576041156E+000
 0.124181929334117E+000
 0.111968654230238E+000
 0.142477597958243E+000
 0.601369071912915E-001
 0.603729322250259E-001
 0.563021874364351E-001
 0.577512124759698E-001
 0.619304195831158E-001
 0.694387111010162E-001
 0.630924815989812E-001
 0.642954777679750E-001
 0.605136092666067E-001
 0.675286379268951E-001
 0.686163313082334E-001
 0.652080362051396E-001
 0.809551514096152E-001
 0.733711101714388E-001
 0.729468845688896E-001
 0.755834316512188E-001
 0.166776046709141E+000
 0.145248663545460E+000
 0.121775751058421E+000
 0.143220839931829E+000
 0.157633366676693E+000
 0.192317008682357E+000
 0.177954167780545E+000
 0.176935302830560E+000
 0.522499380245367E-001
 0.482165161428972E-001
 0.510746957456146E-001
 0.500752304984037E-001
 0.132678914928507E+000
 0.114724341060488E+000
 0.126297724082330E+000
 0.123963270368785E+000
 0.642766633193265E-001
 0.696051429778996E-001
 0.704325329207225E-001
 0.683717524713200E-001
 0.883996509912004E-001
 0.825686003306031E-001
 0.686815983152737E-001
 0.776094561022111E-001
 0.410599140384737E+000
 0.347472722293011E+000
 0.430898397215646E+000
 0.379185166820615E+000
 0.966317352848522E-001
 0.961844189695033E-001
 0.986728720097096E-001
 0.970543868857450E-001
 0.431381544798499E+000
 0.353304881378813E+000
 0.412149938794660E+000
 0.386126061138338E+000
 0.573055817301540E-001
 0.528924274774516E-001
 0.538277432038718E-001
 0.551030661506910E-001
 0.523089268927213E-001
 0.541206446283867E-001
 0.552763431426154E-001
 0.540703047153005E-001
 0.573348003162868E-001
 0.537522257674738E-001
 0.529418149720289E-001
 0.550224671273299E-001
 0.377442483686650E+000
 0.370914564324756E+000
 0.319947432500549E+000
 0.372348078369314E+000
 0.863754432270985E-001
 0.772286838316238E-001
 0.927617666049314E-001
 0.851537167980601E-001
 0.524543058517350E-001
 0.511387423099124E-001
 0.482488547089228E-001
 0.501296745128993E-001
 0.101684749247744E+000
 0.100956244564235E+000
 0.131673478474290E+000
 0.110513404030523E+000
 0.606057689269849E-001
 0.577509527875723E-001
 0.608494127552942E-001
 0.598686702717366E-001
 0.573587231384112E-001
 0.529747759385797E-001
 0.538973651634208E-001
 0.551846076430536E-001
 0.729632473239984E-001
 0.737730678180359E-001
 0.838374908438788E-001
 0.770781447709541E-001
 0.575494859875201E-001
 0.563929036274471E-001
 0.601049114568158E-001
 0.576331658842184E-001
 0.677446336802823E-001
 0.139866624865609E+000
 0.107233835213636E+000
 0.104285780623527E+000
 0.734480931895573E-001
 0.635806760146523E-001
 0.642291309930381E-001
 0.667717310159107E-001
 0.103941862069286E+000
 0.131549044923696E+000
 0.106157676925678E+000
 0.113126873090385E+000
 0.664893636142135E-001
 0.593303126938196E-001
 0.615740681737222E-001
 0.626408348732719E-001
 0.691687112820249E-001
 0.626811771856541E-001
 0.617812394115314E-001
 0.641716607171164E-001
 0.778463829448353E-001
 0.830461366458243E-001
 0.622620460931427E-001
 0.706752593140762E-001
 0.899332345910934E-001
 0.781916483818359E-001
 0.912928451650875E-001
 0.851675885608010E-001
 0.114069611616403E+000
 0.131045602367385E+000
 0.113558583488823E+000
 0.119344050824845E+000
 0.585487177035001E-001
 0.607809359469068E-001
 0.657223194072254E-001
 0.613443293454389E-001
 0.532315084553575E-001
 0.484861779493224E-001
 0.512127235963581E-001
 0.505424949639061E-001
 0.713545764057636E-001
 0.656080319839373E-001
 0.768258431584340E-001
 0.698210313605390E-001
 0.634591155432427E-001
 0.690699384948575E-001
 0.688768251485939E-001
 0.664080889321983E-001
 0.523167030802890E-001
 0.482485109900840E-001
 0.511498952809993E-001
 0.501341544784826E-001
 0.573479942264511E-001
 0.538921690574085E-001
 0.529676038835308E-001
 0.551752404278351E-001
 0.537613680085716E-001
 0.573125631000909E-001
 0.529328164528253E-001
 0.549850698126966E-001
 0.172118450947353E+000
 0.112690033891345E+000
 0.121351694418542E+000
 0.141169237214374E+000
 0.332147896717417E+000
 0.323914949317795E+000
 0.370617112768065E+000
 0.338970304789806E+000
 0.150524625684671E+000
 0.699255696057619E-001
 0.120040846024046E+000
 0.105241735208954E+000
 0.981110312822472E-001
 0.100965690008347E+000
 0.103925973831760E+000
 0.100997585305807E+000
 0.770494793152180E-001
 0.656814442546258E-001
 0.719554147761906E-001
 0.700387566105782E-001
 0.623299992769931E-001
 0.597953800141813E-001
 0.668638497501354E-001
 0.628925050764595E-001
 0.608518037625578E-001
 0.577476309683690E-001
 0.606072133760480E-001
 0.598682430040270E-001
 0.850417822328265E-001
 0.898878112505661E-001
 0.786085998076402E-001
 0.840652926969253E-001
 0.600956981722345E-001
 0.563880454140886E-001
 0.575445496857837E-001
 0.576278560549637E-001
 0.738807137904942E-001
 0.810955018574371E-001
 0.749323532431625E-001
 0.762918627411472E-001
 0.530924847476401E-001
 0.554114341690294E-001
 0.579676729423691E-001
 0.558562605119102E-001
 0.508891720722923E-001
 0.526197232990913E-001
 0.482855912967708E-001
 0.499933212335967E-001
 0.593581157369636E-001
 0.671948230145016E-001
 0.617704252267958E-001
 0.621490403755071E-001
 0.648878342431269E-001
 0.712813606008507E-001
 0.705172831209838E-001
 0.680605585322220E-001
 0.957544669856966E-001
 0.100494375064183E+000
 0.973638128738649E-001
 0.976788593910590E-001
 0.803127716934688E-001
 0.940700596804868E-001
 0.941280207540705E-001
 0.878615374916670E-001
 0.190614554820812E+000
 0.155416755204861E+000
 0.153123870959422E+000
 0.162650327203007E+000
 0.153737748554210E+000
 0.187538752604620E+000
 0.164806777939650E+000
 0.169418256686846E+000
 0.145896970643259E+000
 0.169737722400790E+000
 0.127639142435692E+000
 0.145998129879364E+000
 0.567432112402362E-001
 0.538400302420544E-001
 0.587876596003874E-001
 0.558732870202521E-001
 0.131192083341157E+000
 0.993016002809549E-001
 0.104973208398251E+000
 0.118746514585919E+000
 0.126813753017098E+000
 0.171183661096616E+000
 0.144088317339163E+000
 0.144274526065573E+000
 0.769070322718656E-001
 0.852287734876388E-001
 0.831806979596044E-001
 0.816278873018094E-001
 0.979736253198894E-001
 0.908880124480091E-001
 0.105712416075273E+000
 0.975688677109931E-001
 0.905779424396405E-001
 0.938730030271213E-001
 0.941867337097486E-001
 0.922131119817357E-001
 0.232455703931350E+000
 0.237015629183320E+000
 0.283826980477739E+000
 0.241727936806131E+000
 0.139694788554496E+000
 0.110016765822215E+000
 0.135084300964870E+000
 0.127084758997602E+000
 0.115237225289043E+000
 0.128098904768820E+000
 0.106854818997510E+000
 0.116123267591494E+000
 0.133173194246881E+000
 0.134006209001718E+000
 0.112375159865591E+000
 0.125797760314531E+000
 0.818319622392220E-001
 0.851262199253974E-001
 0.767623475604735E-001
 0.812341595633388E-001
 0.109076233441262E+000
 0.129707717407235E+000
 0.116108121766960E+000
 0.117707436368670E+000
 0.160169830294967E+000
 0.196381056461549E+000
 0.198455681873703E+000
 0.187266997412767E+000
 0.968227506802327E-001
 0.104473089893955E+000
 0.913250023780385E-001
 0.970279089843976E-001
 0.526250409192635E-001
 0.508977754615406E-001
 0.482881048185107E-001
 0.499979509155203E-001
 0.883485918421827E-001
 0.926926232121200E-001
 0.875336413406988E-001
 0.894487477242249E-001
 0.104013377478195E+000
 0.108431140831231E+000
 0.100065094765091E+000
 0.103790702757017E+000
 0.917016790162365E-001
 0.952527992441595E-001
 0.941889735559323E-001
 0.939738583636347E-001
 0.960203210611771E-001
 0.990933761489168E-001
 0.955953332982412E-001
 0.970008470405160E-001
 0.569647394442823E-001
 0.605514195933284E-001
 0.600666527895491E-001
 0.592820017275743E-001
 0.601459461066069E-001
 0.563081132821135E-001
 0.603776863599806E-001
 0.577579787170247E-001
 0.733955116714842E-001
 0.642317740735551E-001
 0.635816049840800E-001
 0.667661501529291E-001
 0.855522130062603E-001
 0.909598615251939E-001
 0.763036805161214E-001
 0.839875747626745E-001
 0.867986336212436E-001
 0.846181655228842E-001
 0.761128911970255E-001
 0.818600853990609E-001
 0.622946238387536E-001
 0.664933233718513E-001
 0.597481608461695E-001
 0.626752304257129E-001
 0.308735659639938E+000
 0.221375604635298E+000
 0.266792649295975E+000
 0.266286236213103E+000
 0.754503810139970E-001
 0.821815804408151E-001
 0.798529160019708E-001
 0.788747264530881E-001
 0.529778669040184E-001
 0.573324405270105E-001
 0.552903786945404E-001
 0.555271469577991E-001
 0.657080550289291E-001
 0.606366525845313E-001
 0.590033868475358E-001
 0.621108183738730E-001
 0.605466645520722E-001
 0.569594259272461E-001
 0.600617216033847E-001
 0.592767362148467E-001
 0.691779000854413E-001
 0.617765746773216E-001
 0.626779773664475E-001
 0.641667851715679E-001
 0.174572461957509E+000
 0.139020614044919E+000
 0.131917421025146E+000
 0.152565270776780E+000
 0.556388938069719E-001
 0.863258757511973E-001
 0.534467271099484E-001
 0.616002114736186E-001
 0.145336781689171E+000
 0.163480195046019E+000
 0.187105591035506E+000
 0.163062417752886E+000
 0.101052755978682E+000
 0.903400334156711E-001
 0.942344826293314E-001
 0.946955334059948E-001
 0.127296843492899E+000
 0.105359997138433E+000
 0.135587602949379E+000
 0.121611373051060E+000
 0.119656735686618E+000
 0.141710777216386E+000
 0.151841435535542E+000
 0.136950199834087E+000
 0.939030859980519E-001
 0.975674938288751E-001
 0.909902072615400E-001
 0.940237963421229E-001
 0.108045919079427E+000
 0.101111792001425E+000
 0.119671427636763E+000
 0.109517303390598E+000
 0.938586351577543E-001
 0.904841814214355E-001
 0.997052095480973E-001
 0.946762113063827E-001
 0.972059010474225E-001
 0.104601251814347E+000
 0.100651504952983E+000
 0.100971646244094E+000
 0.901762998018651E-001
 0.833067115628794E-001
 0.865041312230680E-001
 0.861360870994999E-001
 0.840737547271692E-001
 0.898949550620821E-001
 0.878478349817846E-001
 0.870898273035665E-001
 0.991786453201107E-001
 0.131191637022441E+000
 0.103045328724957E+000
 0.116458307671847E+000
 0.999373739165566E-001
 0.103212087151922E+000
 0.129584950257311E+000
 0.109630458010811E+000
 0.167416137522825E+000
 0.119364244294015E+000
 0.135007635748785E+000
 0.136287772912238E+000
 0.975023638543835E-001
 0.104478715952946E+000
 0.106005442530404E+000
 0.102037953970026E+000
 0.758293911766991E-001
 0.759969306237433E-001
 0.878424261447235E-001
 0.801043895895895E-001
 0.322446203262191E+000
 0.238009472580026E+000
 0.230165349148967E+000
 0.266283315460638E+000
 0.101809938465209E+000
 0.131690729246095E+000
 0.101041478189394E+000
 0.110663114987728E+000
 0.853621308136980E-001
 0.915342460560357E-001
 0.878595989752160E-001
 0.886048527654845E-001
 0.434807357246047E+000
 0.379271385756552E+000
 0.411745745011832E+000
 0.402356353438842E+000
 0.614325675160541E-001
 0.900706418910953E-001
 0.987060006961498E-001
 0.799461373553303E-001
 0.149922848529070E+000
 0.179283518844910E+000
 0.123407947487959E+000
 0.140341046021248E+000
 0.198623318995043E+000
 0.149744823548702E+000
 0.205601539470640E+000
 0.178852218842920E+000
 0.102215419750470E+000
 0.116955350439182E+000
 0.108477637695371E+000
 0.108722884827583E+000
 0.482487359491844E-001
 0.523201389575341E-001
 0.511532522392709E-001
 0.501357738156982E-001
 0.524523735971430E-001
 0.482486763257840E-001
 0.511416440446987E-001
 0.501312050819448E-001
 0.123814648425369E+000
 0.185302902667427E+000
 0.150453594156180E+000
 0.141635464342922E+000
 0.580907426243418E-001
 0.537088352643672E-001
 0.565990129440416E-001
 0.555702080527152E-001
 0.280651613398557E+000
 0.263639949997177E+000
 0.343797361167634E+000
 0.291102217992968E+000
 0.611062722577098E-001
 0.951775238008731E-001
 0.895410680060524E-001
 0.787167718413604E-001
 0.778700211456463E-001
 0.622483076545372E-001
 0.830530882900431E-001
 0.706642629275975E-001
 0.531388794447794E-001
 0.827502180580879E-001
 0.554409117905647E-001
 0.604248158026051E-001
 0.446793163839305E+000
 0.447195401917699E+000
 0.448449226969556E+000
 0.448624200223344E+000
 0.313559339470218E+000
 0.405601502535506E+000
 0.357625443604049E+000
 0.356164279576674E+000
 0.205178149644637E+000
 0.141093790327216E+000
 0.177563608847555E+000
 0.173991989015610E+000
 0.216480474585500E+000
 0.301480297627463E+000
 0.243865227743259E+000
 0.256072896436640E+000
 0.224573340006475E+000
 0.161888098872354E+000
 0.206820401619580E+000
 0.205746300379582E+000
 0.157449191716872E+000
 0.226153237432818E+000
 0.185209784791322E+000
 0.194171130894028E+000
 0.268852107268909E+000
 0.238120546774933E+000
 0.309479379420616E+000
 0.275937143285736E+000
 0.436661004920178E+000
 0.412743470072506E+000
 0.382479692145778E+000
 0.404243381334592E+000
 0.277463559932799E+000
 0.344188968587839E+000
 0.365201775076017E+000
 0.325857911337668E+000
 0.353227621688933E+000
 0.273544106686557E+000
 0.284166372968128E+000
 0.290302162520051E+000
 0.169866686057788E+000
 0.235317229305481E+000
 0.214750495684433E+000
 0.203903915629648E+000
 0.299940998933109E+000
 0.264185509675572E+000
 0.354500476271659E+000
 0.308833742179324E+000
 0.151622596385463E+000
 0.147578005722681E+000
 0.182743572470384E+000
 0.158590087223559E+000
 0.541152154249155E-001
 0.523009280499753E-001
 0.552732386277414E-001
 0.540648969027977E-001
 0.484848092979664E-001
 0.532191578556588E-001
 0.512136613809134E-001
 0.505409465248512E-001
 0.309307471522385E+000
 0.350881194378295E+000
 0.400212986223106E+000
 0.356428574911786E+000
 0.236580187000880E+000
 0.299791270050704E+000
 0.232561701918834E+000
 0.263487598909286E+000
 0.187592834103447E+000
 0.193581066065417E+000
 0.157510822812579E+000
 0.184533533426264E+000
 0.263969612687303E+000
 0.358219253532189E+000
 0.335911518394763E+000
 0.322252243089102E+000
 0.172041617910064E+000
 0.198633745007480E+000
 0.189392143762564E+000
 0.187877308456896E+000
 0.348148132659851E+000
 0.237324155878082E+000
 0.260041903168576E+000
 0.259787464420061E+000
 0.378546196829699E+000
 0.337849292543007E+000
 0.392199779358922E+000
 0.379576774797728E+000
 0.249201438091825E+000
 0.185576357829429E+000
 0.172227154293788E+000
 0.193855186788951E+000
 0.357212526974604E+000
 0.266089854572508E+000
 0.307604851043252E+000
 0.316850349452334E+000
 0.201903576170800E+000
 0.198652296230913E+000
 0.162650425763978E+000
 0.187893214276292E+000
 0.141234120515673E+000
 0.182627838925395E+000
 0.149432079731414E+000
 0.155143283031974E+000
 0.294684614362702E+000
 0.287863168643565E+000
 0.246336787727920E+000
 0.282024884468957E+000
 0.436581331031816E+000
 0.413939984203799E+000
 0.421837350669448E+000
 0.420236766745523E+000
 0.247126112962465E+000
 0.215760610512547E+000
 0.342074004614810E+000
 0.250081648266011E+000
 0.437014524658607E+000
 0.444020471590354E+000
 0.430251793015513E+000
 0.437120984362082E+000
 0.426434312509439E+000
 0.449070475027460E+000
 0.435945263733904E+000
 0.433048328049062E+000
 0.263004064019425E+000
 0.353966728794315E+000
 0.308649784380033E+000
 0.321839182520915E+000
 0.347245742798561E+000
 0.381328765536810E+000
 0.396527528270649E+000
 0.380595958503710E+000
 0.289301256951744E+000
 0.237087340764137E+000
 0.235548312829517E+000
 0.245092475131674E+000
 0.239076572880577E+000
 0.233929482927573E+000
 0.281833241019251E+000
 0.243222942232381E+000
 0.288850306537791E+000
 0.294715045151658E+000
 0.244542583474426E+000
 0.282572241404884E+000
 0.331362152697581E+000
 0.339196784663247E+000
 0.393390825011848E+000
 0.342221430330269E+000
 0.648682250539181E-001
 0.613724027586608E-001
 0.699238767689504E-001
 0.655894052733016E-001
 0.101488147742002E+000
 0.108128273576662E+000
 0.118010076159082E+000
 0.108530047291921E+000
 0.971272699463434E-001
 0.103903332213018E+000
 0.102095014996876E+000
 0.100387495642181E+000
 0.101399756327058E+000
 0.963000061944977E-001
 0.966168536337568E-001
 0.981407636551394E-001
 0.168210829957138E+000
 0.177240671627542E+000
 0.125250769238515E+000
 0.155356944343849E+000
 0.120634175561135E+000
 0.165922237659076E+000
 0.132649280975920E+000
 0.137245971062949E+000
 0.980482025882983E-001
 0.103411280798587E+000
 0.969937336091805E-001
 0.993821550207950E-001
 0.146597199515976E+000
 0.190069799130025E+000
 0.192781148965660E+000
 0.176658947194814E+000
 0.714062905599384E-001
 0.680754014006686E-001
 0.766729097687207E-001
 0.725889984106954E-001
 0.176855052091674E+000
 0.120621175026630E+000
 0.143500915067687E+000
 0.153595159464092E+000
 0.889372798573118E-001
 0.996824854016794E-001
 0.954861753860626E-001
 0.946778443458019E-001
 0.496210445750215E-001
 0.558723441873198E-001
 0.558597161629462E-001
 0.526070197066496E-001
 0.132493809535593E+000
 0.105385153436659E+000
 0.101504081813419E+000
 0.115056542939275E+000
 0.856392365137346E-001
 0.922380074960243E-001
 0.848802345921451E-001
 0.873172916908913E-001
 0.976315343352195E-001
 0.101016439099951E+000
 0.887495341708780E-001
 0.950345823062920E-001
 0.110792836628142E+000
 0.148714805054497E+000
 0.113531239658741E+000
 0.121242608721560E+000
 0.624967586552987E-001
 0.858488401125968E-001
 0.780125168255154E-001
 0.708251830601881E-001
 0.297675541171793E+000
 0.344347821547392E+000
 0.250632834611600E+000
 0.313407909060598E+000
 0.151071034457443E+000
 0.128870808668268E+000
 0.179390342431037E+000
 0.142657747196475E+000
 0.753837570984485E-001
 0.808238083563055E-001
 0.810700772259287E-001
 0.776226010568847E-001
 0.913605652055066E-001
 0.840094506549101E-001
 0.803139136160790E-001
 0.851317996513914E-001
 0.895109882796964E-001
 0.780003986398277E-001
 0.753822537650065E-001
 0.816653074861867E-001
 0.160108026784488E+000
 0.117359111382125E+000
 0.148791745065405E+000
 0.139460438946035E+000
 0.315687590328090E+000
 0.382667059221552E+000
 0.313238211945621E+000
 0.361961605695669E+000
 0.316833220370714E+000
 0.216487677201154E+000
 0.233104101579587E+000
 0.254277013086017E+000
 0.264425654705740E+000
 0.222288839232269E+000
 0.183881489289543E+000
 0.214941401446131E+000
 0.482112802908885E-001
 0.521930376566113E-001
 0.510334413129369E-001
 0.500447259259140E-001
 0.636799913510420E-001
 0.645948919727724E-001
 0.736738087812353E-001
 0.668793264510276E-001
 0.286890575827614E+000
 0.286841253033265E+000
 0.209492052970281E+000
 0.239727392535072E+000
 0.235875332959706E+000
 0.166078571660736E+000
 0.205298173120043E+000
 0.197370632406150E+000
 0.910953335033783E-001
 0.123143069808265E+000
 0.616573962742587E-001
 0.893591891817180E-001
 0.602289585103088E-001
 0.696999773480233E-001
 0.103640701144334E+000
 0.745457776011827E-001
 0.255489356337891E+000
 0.184718139602452E+000
 0.209404154777786E+000
 0.223043370286797E+000
 0.100555882709448E+000
 0.102642019982489E+000
 0.131968300600543E+000
 0.112250897271999E+000
 0.114584042539644E+000
 0.978639316142282E-001
 0.633078518484149E-001
 0.876288545702259E-001
 0.169648793062131E+000
 0.237628680760530E+000
 0.162218079225654E+000
 0.204994529430047E+000
 0.286812067400232E+000
 0.236907939686433E+000
 0.278013368690418E+000
 0.260401801543084E+000
 0.895684400356815E-001
 0.139940571243868E+000
 0.132819474556011E+000
 0.116235111194445E+000
 0.592808971115528E-001
 0.939917384369540E-001
 0.844949158183519E-001
 0.777618759489417E-001
 0.752212092583347E-001
 0.841782347576992E-001
 0.680170355352736E-001
 0.752694738559760E-001
 0.263727738602052E+000
 0.259191542051998E+000
 0.200852675955488E+000
 0.251379515019186E+000
 0.549543658135152E-001
 0.518022964697356E-001
 0.566860224225783E-001
 0.513467099617049E-001
 0.113708752973265E+000
 0.708428423253476E-001
 0.583888858634091E-001
 0.797343268559680E-001
 0.953803719252779E-001
 0.917704530679485E-001
 0.946528282975139E-001
 0.941700409289567E-001
 0.941899481332400E-001
 0.944419031054490E-001
 0.906136342920227E-001
 0.923784372637378E-001
 0.126789995044784E+000
 0.117689517018012E+000