# vtk DataFile Version 3.0
Unstructured Grid
ASCII
DATASET UNSTRUCTURED_GRID
FIELD FieldData 1
TIME 1 1 float
  0.150000E+01
POINTS          640 double
 0.000000000000000E+000 0.000000000000000E+000 0.000000000000000E+000
 0.100000000000000E+001 0.000000000000000E+000 0.000000000000000E+000
 0.100000000000000E+001 0.100000000000000E+001 0.000000000000000E+000
 0.000000000000000E+000 0.100000000000000E+001 0.000000000000000E+000
 0.125000000000000E+000 0.250000000000000E+000 0.000000000000000E+000
 0.375000000000000E+000 0.250000000000000E+000 0.000000000000000E+000
 0.375000000000000E+000 0.750000000000000E+000 0.000000000000000E+000
 0.125000000000000E+000 0.750000000000000E+000 0.000000000000000E+000
 0.625000000000000E+000 0.250000000000000E+000 0.000000000000000E+000
 0.875000000000000E+000 0.250000000000000E+000 0.000000000000000E+000
 0.875000000000000E+000 0.750000000000000E+000 0.000000000000000E+000
 0.625000000000000E+000 0.750000000000000E+000 0.000000000000000E+000
 0.100000000000000E+001 0.500000000000000E+000 0.000000000000000E+000
 0.000000000000000E+000 0.500000000000000E+000 0.000000000000000E+000
 0.500000000000000E+000 0.000000000000000E+000 0.000000000000000E+000
 0.125000000000000E+000 0.500000000000000E+000 0.000000000000000E+000
 0.000000000000000E+000 0.750000000000000E+000 0.000000000000000E+000
 0.000000000000000E+000 0.250000000000000E+000 0.000000000000000E+000
 0.000000000000000E+000 0.875000000000000E+000 0.000000000000000E+000
 0.000000000000000E+000 0.125000000000000E+000 0.000000000000000E+000
 0.625000000000000E-001 0.812500000000000E+000 0.000000000000000E+000
 0.125000000000000E+000 0.375000000000000E+000 0.000000000000000E+000
 0.125000000000000E+000 0.625000000000000E+000 0.000000000000000E+000
 0.500000000000000E+000 0.100000000000000E+001 0.000000000000000E+000
 0.250000000000000E+000 0.100000000000000E+001 0.000000000000000E+000
 0.125000000000000E+000 0.100000000000000E+001 0.000000000000000E+000
 0.729166666666667E-001 0.885416666666667E+000 0.000000000000000E+000
 0.000000000000000E+000 0.625000000000000E+000 0.000000000000000E+000
 0.625000000000000E-001 0.562500000000000E+000 0.000000000000000E+000
 0.375000000000000E+000 0.500000000000000E+000 0.000000000000000E+000
 0.375000000000000E+000 0.100000000000000E+001 0.000000000000000E+000
 0.250000000000000E+000 0.000000000000000E+000 0.000000000000000E+000
 0.625000000000000E-001 0.187500000000000E+000 0.000000000000000E+000
 0.143518518518519E+000 0.775462962962963E-001 0.000000000000000E+000
 0.156250000000000E+000 0.156250000000000E+000 0.000000000000000E+000
 0.729166666666667E-001 0.114583333333333E+000 0.000000000000000E+000
 0.125000000000000E+000 0.000000000000000E+000 0.000000000000000E+000
 0.250000000000000E+000 0.250000000000000E+000 0.000000000000000E+000
 0.375000000000000E+000 0.000000000000000E+000 0.000000000000000E+000
 0.187500000000000E+000 0.218750000000000E+000 0.000000000000000E+000
 0.312500000000000E+000 0.762453007518797E-001 0.000000000000000E+000
 0.270259392278489E+000 0.159169301283415E+000 0.000000000000000E+000
 0.365310977506407E+000 0.155367112827996E+000 0.000000000000000E+000
 0.312500000000000E+000 0.216265619131990E+000 0.000000000000000E+000
 0.500000000000000E+000 0.189389379011873E+000 0.000000000000000E+000
 0.426456487258648E+000 0.196919158251449E+000 0.000000000000000E+000
 0.451620395371675E+000 0.941243892751461E-001 0.000000000000000E+000
 0.381804756165356E+000 0.871724813114945E-001 0.000000000000000E+000
 0.437500000000000E+000 0.273708879364394E-001 0.000000000000000E+000
 0.000000000000000E+000 0.375000000000000E+000 0.000000000000000E+000
 0.625000000000000E-001 0.312500000000000E+000 0.000000000000000E+000
 0.250000000000000E+000 0.750000000000000E+000 0.000000000000000E+000
 0.158482142857143E+000 0.851934523809524E+000 0.000000000000000E+000
 0.210861885404568E+000 0.921875000000000E+000 0.000000000000000E+000
 0.136017278952732E+000 0.925863358051789E+000 0.000000000000000E+000
 0.625000000000000E-001 0.687500000000000E+000 0.000000000000000E+000
 0.250000000000000E+000 0.437500000000000E+000 0.000000000000000E+000
 0.247528011619582E+000 0.839830719156545E+000 0.000000000000000E+000
 0.312500000000000E+000 0.796669265575374E+000 0.000000000000000E+000
 0.419664368355990E+000 0.875000000000000E+000 0.000000000000000E+000
 0.313183356674252E+000 0.918387829019328E+000 0.000000000000000E+000
 0.312500000000000E+000 0.100000000000000E+001 0.000000000000000E+000
 0.380617553087688E+000 0.931527612480385E+000 0.000000000000000E+000
 0.187500000000000E+000 0.785936956899548E+000 0.000000000000000E+000
 0.350379273974835E+000 0.857317802397078E+000 0.000000000000000E+000
 0.228046514569416E+000 0.817347524546315E-001 0.000000000000000E+000
 0.187500000000000E+000 0.312500000000000E+000 0.000000000000000E+000
 0.625000000000000E-001 0.437500000000000E+000 0.000000000000000E+000
 0.197916666666667E+000 0.385416666666667E+000 0.000000000000000E+000
 0.375000000000000E+000 0.375000000000000E+000 0.000000000000000E+000
 0.750000000000000E+000 0.000000000000000E+000 0.000000000000000E+000
 0.625000000000000E-001 0.959280303030303E+000 0.000000000000000E+000
 0.234375000000000E+000 0.562500000000000E+000 0.000000000000000E+000
 0.187500000000000E+000 0.687500000000000E+000 0.000000000000000E+000
 0.193892045454545E+000 0.618607954545455E+000 0.000000000000000E+000
 0.375000000000000E+000 0.625000000000000E+000 0.000000000000000E+000
 0.283775504647110E+000 0.640801989544002E+000 0.000000000000000E+000
 0.281298714846257E+000 0.504888901855782E+000 0.000000000000000E+000
 0.331282779604339E+000 0.562500000000000E+000 0.000000000000000E+000
 0.338845441361880E+000 0.687500000000000E+000 0.000000000000000E+000
 0.500000000000000E+000 0.775815254846569E+000 0.000000000000000E+000
 0.625000000000000E-001 0.407196969696970E-001 0.000000000000000E+000
 0.328125000000000E+000 0.437500000000000E+000 0.000000000000000E+000
 0.284143518518519E+000 0.340856481481482E+000 0.000000000000000E+000
 0.312500000000000E+000 0.278356481481482E+000 0.000000000000000E+000
 0.625000000000000E+000 0.500000000000000E+000 0.000000000000000E+000
 0.410581328448014E+000 0.312500000000000E+000 0.000000000000000E+000
 0.543730092976870E+000 0.258404709955172E+000 0.000000000000000E+000
 0.625000000000000E+000 0.375000000000000E+000 0.000000000000000E+000
 0.500000000000000E+000 0.404784409423024E+000 0.000000000000000E+000
 0.590394028376448E+000 0.312500000000000E+000 0.000000000000000E+000
 0.467392923590959E+000 0.261422480241605E+000 0.000000000000000E+000
 0.508234229043035E+000 0.327522431406248E+000 0.000000000000000E+000
 0.625000000000000E+000 0.000000000000000E+000 0.000000000000000E+000
 0.537311919648379E+000 0.110523699730938E+000 0.000000000000000E+000
 0.750000000000000E+000 0.250000000000000E+000 0.000000000000000E+000
 0.593146640296986E+000 0.172723366619635E+000 0.000000000000000E+000
 0.623771215502605E+000 0.890722450407200E-001 0.000000000000000E+000
 0.687500000000000E+000 0.454068088573020E-001 0.000000000000000E+000
 0.793069391389776E+000 0.125000000000000E+000 0.000000000000000E+000
 0.695513657869308E+000 0.162768437982326E+000 0.000000000000000E+000
 0.687500000000000E+000 0.250000000000000E+000 0.000000000000000E+000
 0.875000000000000E+000 0.500000000000000E+000 0.000000000000000E+000
 0.727921748554044E+000 0.101601148842529E+000 0.000000000000000E+000
 0.759582972952604E+000 0.183381972603444E+000 0.000000000000000E+000
 0.875000000000000E+000 0.375000000000000E+000 0.000000000000000E+000
 0.718750000000000E+000 0.343750000000000E+000 0.000000000000000E+000
 0.697916666666667E+000 0.437500000000000E+000 0.000000000000000E+000
 0.750000000000000E+000 0.572048611111111E+000 0.000000000000000E+000
 0.787123226950355E+000 0.408133865248227E+000 0.000000000000000E+000
 0.804687500000000E+000 0.320312500000000E+000 0.000000000000000E+000
 0.700214460784314E+000 0.513965482026144E+000 0.000000000000000E+000
 0.783021635712153E+000 0.493366127722916E+000 0.000000000000000E+000
 0.625000000000000E+000 0.625000000000000E+000 0.000000000000000E+000
 0.848380638879200E+000 0.437500000000000E+000 0.000000000000000E+000
 0.562500000000000E+000 0.404604515401992E-001 0.000000000000000E+000
 0.875000000000000E+000 0.625000000000000E+000 0.000000000000000E+000
 0.750000000000000E+000 0.750000000000000E+000 0.000000000000000E+000
 0.697046765904942E+000 0.621060933265583E+000 0.000000000000000E+000
 0.200520833333333E+000 0.494791666666667E+000 0.000000000000000E+000
 0.429642360217793E+000 0.800955091165693E+000 0.000000000000000E+000
 0.453073336954457E+000 0.687500000000000E+000 0.000000000000000E+000
 0.548183885155829E+000 0.693587592964698E+000 0.000000000000000E+000
 0.750000000000000E+000 0.100000000000000E+001 0.000000000000000E+000
 0.573843760532799E+000 0.437500000000000E+000 0.000000000000000E+000
 0.500000000000000E+000 0.550126792242997E+000 0.000000000000000E+000
 0.511972906944656E+000 0.477455600833011E+000 0.000000000000000E+000
 0.437507615834863E+000 0.452402202857321E+000 0.000000000000000E+000
 0.546458141439317E+000 0.614345103225503E+000 0.000000000000000E+000
 0.571440414895569E+000 0.547357897962524E+000 0.000000000000000E+000
 0.450991397292447E+000 0.610087136082382E+000 0.000000000000000E+000
 0.875000000000000E+000 0.000000000000000E+000 0.000000000000000E+000
 0.100000000000000E+001 0.250000000000000E+000 0.000000000000000E+000
 0.100000000000000E+001 0.375000000000000E+000 0.000000000000000E+000
 0.687500000000000E+000 0.700324699898860E+000 0.000000000000000E+000
 0.812500000000000E+000 0.687500000000000E+000 0.000000000000000E+000
 0.804621866531165E+000 0.617121866531165E+000 0.000000000000000E+000
 0.825181931429427E+000 0.549770415540467E+000 0.000000000000000E+000
 0.100000000000000E+001 0.625000000000000E+000 0.000000000000000E+000
 0.100000000000000E+001 0.750000000000000E+000 0.000000000000000E+000
[...]
CELL_DATA         1212
SCALARS tdens double 1
LOOKUP_TABLE default
 0.403331011859369E+001
 0.402581847909886E+001
 0.402653096155032E+001
 0.402839820836633E+001
 0.408195032274536E+001
 0.408925679029030E+001
 0.408057087389238E+001
 0.408501064555132E+001
 0.406745938995469E+001
 0.404098847095099E+001
 0.404591551303224E+001
 0.404868190238330E+001
 0.402348223173592E+001
 0.402376494012360E+001
 0.401814070982720E+001
 0.401999300449364E+001
 0.402581570268871E+001
 0.403328247052089E+001
 0.402651443017186E+001
 0.402839189542784E+001
 0.402380449991597E+001
 0.403365542198164E+001
 0.403604329982318E+001
 0.403101162731405E+001
 0.405164153971070E+001
 0.404293743243432E+001
 0.404075663888813E+001
 0.404502730144657E+001
 0.410607081786449E+001
 0.409738843312754E+001
 0.408473939526188E+001
 0.409395783131677E+001
 0.408532465887248E+001
 0.408434236409423E+001
 0.409591003540202E+001
 0.408931769733524E+001
 0.401144740190785E+001
 0.400378582462751E+001
 0.400934033695650E+001
 0.400745117866800E+001
 0.409333094582184E+001
 0.408439117715695E+001
 0.408943926291421E+001
 0.408816272406472E+001
 0.402839083029475E+001
 0.403706956078850E+001
 0.403703621784910E+001
 0.403500777849706E+001
 0.404837274991308E+001
 0.404319247000050E+001
 0.403201385064928E+001
 0.403990183133252E+001
 0.414991014953200E+001
 0.411915353298507E+001
 0.415390350462173E+001
 0.414235627540194E+001
 0.407342560404174E+001
 0.407361515885997E+001
 0.407531691569600E+001
 0.407415938208979E+001
 0.415337041953377E+001
 0.411823088627658E+001
 0.415011629641114E+001
 0.414248649107858E+001
 0.401948465258025E+001
 0.401252986308733E+001
 0.401409325703954E+001
 0.401633186179985E+001
 0.401018231402357E+001
 0.401332611217413E+001
 0.401489973688305E+001
 0.401315090463875E+001
 0.402026401292439E+001
 0.401548213982417E+001
 0.401295259621836E+001
 0.401716103800329E+001
 0.414831564178042E+001
 0.415301945707480E+001
 0.413998352976744E+001
 0.414565296131252E+001
 0.404545059780458E+001
 0.403973007953199E+001
 0.405060534937167E+001
 0.404609967392182E+001
 0.401267982600239E+001
 0.400968168912546E+001
 0.400387052987611E+001
 0.400773616476831E+001
 0.405474650520455E+001
 0.405128607584995E+001
 0.407325858854120E+001
 0.405670909195973E+001
 0.402347849200990E+001
 0.401939904912358E+001
 0.402435286162481E+001
 0.402263704233589E+001
 0.401951679738468E+001
 0.401260524341295E+001
 0.401415024424681E+001
 0.401639124567026E+001
 0.403851875172504E+001
 0.403754142693313E+001
 0.404824350467071E+001
 0.404255762543190E+001
 0.401852949919505E+001
 0.401715560937109E+001
 0.402254751140298E+001
 0.401877713823203E+001
 0.400539379350561E+001
 0.402993466234140E+001
 0.402172791375913E+001
 0.401734904256647E+001
 0.403662583883350E+001
 0.402743401168028E+001
 0.402780747250119E+001
 0.403042635054899E+001
 0.406317450618342E+001
 0.407559643811055E+001
 0.406113109292367E+001
 0.406761892668697E+001
 0.402949033850401E+001
 0.402058360522000E+001
 0.402369069362635E+001
 0.402513658943303E+001
 0.403302584061570E+001
 0.402646558675213E+001
 0.402579475255095E+001
 0.402835430459680E+001
 0.403948598294416E+001
 0.403695896473012E+001
 0.402750730377437E+001
 0.403405707457833E+001
 0.405338718875839E+001
 0.404189013172327E+001
 0.405199806179717E+001
 0.404705306356965E+001
 0.408293925209935E+001
 0.409083849456735E+001
 0.408336673603658E+001
 0.408696261774402E+001
 0.402074883568418E+001
 0.402348306750237E+001
 0.403084782133244E+001
 0.402431175914418E+001
 0.401198141485029E+001
 0.400380488326952E+001
 0.400850680984481E+001
 0.400739938988321E+001
 0.403477098328101E+001
 0.402923464206342E+001
 0.403979432024981E+001
 0.403295777791525E+001
 0.402681987984059E+001
 0.403315183309813E+001
 0.403424027330225E+001
 0.403021236903118E+001
 0.401150243655196E+001
 0.400381422582503E+001
 0.400941094286128E+001
 0.400750447929688E+001
 0.401952770380867E+001
 0.401416215251445E+001
 0.401261794512871E+001
 0.401640404067451E+001
 0.401550057620940E+001
 0.402029235735602E+001
 0.401296769196429E+001
 0.401718699324110E+001
 0.406605171744846E+001
 0.404518373507053E+001
 0.403940616513445E+001
 0.404681671635056E+001
 0.413797880462852E+001
 0.414063506273061E+001
 0.415044898817799E+001
 0.414329039862103E+001
 0.402931193450733E+001
 0.400549525396363E+001
 0.401808260679422E+001
 0.401666134367037E+001
 0.407438951349249E+001
 0.407665466816385E+001
 0.407837329487510E+001
 0.407659738486801E+001
 0.404000471100952E+001
 0.402935204637677E+001
 0.403536774917504E+001
 0.403315419737159E+001
 0.402502823550948E+001
 0.402140107189114E+001
 0.402988008050342E+001
 0.402554262603032E+001
 0.402435320949205E+001
 0.401939398682729E+001
 0.402347855710540E+001
 0.402263493925111E+001
 0.405519295399411E+001
 0.405684900459406E+001
 0.404669226283441E+001
 0.405257067098785E+001
 0.402253026323131E+001
 0.401714910059335E+001
 0.401851992006157E+001
 0.401876856632445E+001
 0.404375622318565E+001
 0.405222869127698E+001
 0.404348757042785E+001
 0.404589144841720E+001
 0.401150662210815E+001
 0.401550198099524E+001
 0.401905160268507E+001
 0.401614618668843E+001
 0.400791525146277E+001
 0.401096322548680E+001
 0.400342529050153E+001
 0.400639084138608E+001
 0.402215134525853E+001
 0.403420371159699E+001
 0.402532496329632E+001
 0.402602331408780E+001
 0.402869805614634E+001
 0.403732811195529E+001
 0.403464992891545E+001
 0.403216284970353E+001
 0.407205602435350E+001
 0.407551800601288E+001
 0.407182867633684E+001
 0.407301109682682E+001
 0.404367544711124E+001
 0.405732389020894E+001
 0.405402759666530E+001
 0.404926351626666E+001
 0.410967457430972E+001
 0.409982575036896E+001
 0.409926267254027E+001
 0.410447718525590E+001
 0.409271129185005E+001
 0.410863065382490E+001
 0.409141871797613E+001
 0.410099885639409E+001
 0.409748446373133E+001
 0.410699997485171E+001
 0.408816140816948E+001
 0.409575337650466E+001
 0.401706126767146E+001
 0.401270556131670E+001
 0.402020199791820E+001
 0.401566178380120E+001
 0.407145217703904E+001
 0.405295808544497E+001
 0.405781605613590E+001
 0.406769034605566E+001
 0.408492791784598E+001
 0.410446390556443E+001
 0.408998009612188E+001
 0.409441219198678E+001
 0.404828791160541E+001
 0.405948772478292E+001
 0.405560791822795E+001
 0.405442221965022E+001
 0.406408140911041E+001
 0.406132641710062E+001
 0.407311388177188E+001
 0.406564358354763E+001
 0.406673632399271E+001
 0.407044627715656E+001
 0.406917077159232E+001
 0.406805566875022E+001
 0.411967601297883E+001
 0.412253780362730E+001
 0.413165212940527E+001
 0.412631336366139E+001
 0.408351089328700E+001
 0.406993124499851E+001
 0.408502786314230E+001
 0.407716171068922E+001
 0.407814352751776E+001
 0.408222013225056E+001
 0.406961040783654E+001
 0.407632959467979E+001
 0.409392994706511E+001
 0.409394295777533E+001
 0.408342448479091E+001
 0.408838073383187E+001
 0.405462615998068E+001
 0.405937933787463E+001
 0.404827547392753E+001
 0.405414297558413E+001
 0.407998234052276E+001
 0.408969527162601E+001
 0.408157751146978E+001
 0.408463995805067E+001
 0.410371083826266E+001
 0.411389091376416E+001
 0.411419340878919E+001
 0.410880830230108E+001
 0.406905247428266E+001
 0.407316032245176E+001
 0.406276888644160E+001
 0.406867495137728E+001
 0.401096758722242E+001
 0.400792314147533E+001
 0.400342697134943E+001
 0.400639410065731E+001
 0.406325866710530E+001
 0.406653401007958E+001
 0.406024034282327E+001
 0.406368981540724E+001
 0.407708101496916E+001
 0.407765335081734E+001
 0.407306041571372E+001
 0.407564679150983E+001
 0.406838168158787E+001
 0.407265220302732E+001
 0.407112089539776E+001
 0.407100194251196E+001
 0.407335122332739E+001
 0.407477047682173E+001
 0.407229424211052E+001
 0.407389726009611E+001
 0.401922882606450E+001
 0.402431005174910E+001
 0.402340290893211E+001
 0.402255198961548E+001
 0.402348323854273E+001
 0.401813038892263E+001
 0.402375847947901E+001
 0.401998402327957E+001
 0.403658700922854E+001
 0.402781629137033E+001
 0.402742718458496E+001
 0.403041961091068E+001
 0.404499579848478E+001
 0.404961682575865E+001
 0.403909837492290E+001
 0.404525694079449E+001
 0.405344067697214E+001
 0.405452456571411E+001
 0.404371150890910E+001
 0.404946145642094E+001
 0.402499238528210E+001
 0.402953381766942E+001
 0.402135352138524E+001
 0.402523620633098E+001
 0.410347419837492E+001
 0.406485036507447E+001
 0.408274443338323E+001
 0.408293390825856E+001
 0.404584621472063E+001
 0.405368305439367E+001
 0.405200014163811E+001
 0.405087975794632E+001
 0.401131631406851E+001
 0.401810069386306E+001
 0.401527088049661E+001
 0.401561236695107E+001
 0.402855854523639E+001
 0.402244588246295E+001
 0.402010161012298E+001
 0.402451310524490E+001
 0.402431320880301E+001
 0.401923804281631E+001
 0.402340894488996E+001
 0.402255851789260E+001
 0.403303855774805E+001
 0.402579590383882E+001
 0.402647117454190E+001
 0.402835487438652E+001
 0.404649898554198E+001
 0.402824895046924E+001
 0.403147139665606E+001
 0.403507666963817E+001
 0.401841261950602E+001
 0.401755306931888E+001
 0.401118650642146E+001
 0.401335854735034E+001
 0.408945985756474E+001
 0.409069531574599E+001
 0.410840289305939E+001
 0.409841500673723E+001
 0.406890097006996E+001
 0.406029075200405E+001
 0.405975889467497E+001
 0.406289198066350E+001
 0.408112045786796E+001
 0.406606467983932E+001
 0.408178879521309E+001
 0.407334857339418E+001
 0.408735877319102E+001
 0.409623576895897E+001
 0.410017334011872E+001
 0.409389674799993E+001
 0.406948666998957E+001
 0.407388283232454E+001
 0.406730017823499E+001
 0.406958101687047E+001
 0.407265432180213E+001
 0.406430159185588E+001
 0.407712544168288E+001
 0.407179285635997E+001
 0.406690103998747E+001
 0.406206619446256E+001
 0.406956036107703E+001
 0.406677427459817E+001
 0.407164187719964E+001
 0.407702490624442E+001
 0.407566739957897E+001
 0.407517282793819E+001
 0.406456039144703E+001
 0.405696302875059E+001
 0.405939751833042E+001
 0.405923802118107E+001
 0.405774492144678E+001
 0.406435673062987E+001
 0.406277735580270E+001
 0.406213766144798E+001
 0.405295358196094E+001
 0.407151468997410E+001
 0.405682712998010E+001
 0.406658796267655E+001
 0.405926856727307E+001
 0.405885969144313E+001
 0.407369062405033E+001
 0.406551952426709E+001
 0.410211673833205E+001
 0.408003438183459E+001
 0.408559107631257E+001
 0.409052639370977E+001
 0.407100170395012E+001
 0.407462279095097E+001
 0.407740781784348E+001
 0.407329258524656E+001
 0.403946155221822E+001
 0.404213887884991E+001
 0.405247855323222E+001
 0.404593493164591E+001
 0.413400717654405E+001
 0.409938700321386E+001
 0.410767235458073E+001
 0.411014144653603E+001
 0.405477426691659E+001
 0.407309985138340E+001
 0.405126421367448E+001
 0.405674847213911E+001
 0.405836405706783E+001
 0.406533361289486E+001
 0.406264673255267E+001
 0.406309879595342E+001
 0.415854933772764E+001
 0.413481358086693E+001
 0.415466281472377E+001
 0.414945450240097E+001
 0.402239486051055E+001
 0.403406501826607E+001
 0.402674508000047E+001
 0.402626695051079E+001
 0.407500827311987E+001
 0.407366867007610E+001
 0.405375066605243E+001
 0.406763292419319E+001
 0.405694924168085E+001
 0.404272148078855E+001
 0.407087312283257E+001
 0.405652573489118E+001
 0.407453997462658E+001
 0.408357898820087E+001
 0.408000390719152E+001
 0.407943451698632E+001
 0.400380592810884E+001
 0.401149066438497E+001
 0.400940028020462E+001
 0.400749338741662E+001
 0.401267605842928E+001
 0.400386636952243E+001
 0.400967125259052E+001
 0.400773132695779E+001
 0.405313332747913E+001
 0.407217783725936E+001
 0.407455386207175E+001
 0.406604075125373E+001
 0.401919367893631E+001
 0.401248743698312E+001
 0.401685055452371E+001
 0.401520208045166E+001
 0.411941757755030E+001
 0.410102407302204E+001
 0.413699498197242E+001
 0.411967526383082E+001
 0.402268805545924E+001
 0.402639308291522E+001
 0.403405850744200E+001
 0.402609288674073E+001
 0.403952325940390E+001
 0.402749101961637E+001
 0.403691941254324E+001
 0.403404280858157E+001
 0.401153198995261E+001
 0.401745439813467E+001
 0.401867702711602E+001
 0.401389918832658E+001
 0.415641885648797E+001
 0.415703953469609E+001
 0.415635257376907E+001
 0.415685054432513E+001
 0.410200175037852E+001
 0.414422010618101E+001
 0.412362867293077E+001
 0.412336742545499E+001
 0.406822628145212E+001
 0.403976492826392E+001
 0.404971157957833E+001
 0.405146967282031E+001
 0.406521666076817E+001
 0.410312677109080E+001
 0.408375523233087E+001
 0.408365164482463E+001
 0.410533247700652E+001
 0.408527329339265E+001
 0.408818613603320E+001
 0.409062112413353E+001
 0.403518196670716E+001
 0.406538994796239E+001
 0.404810518999618E+001
 0.404893094504429E+001
 0.408440592255404E+001
 0.407183888835195E+001
 0.410383424912746E+001
 0.408596004503999E+001
 0.415927131536783E+001
 0.415532960429496E+001
 0.413701209264959E+001
 0.415046398050684E+001
 0.410119799406565E+001
 0.412226715923351E+001
 0.413850957519565E+001
 0.412045837361550E+001
 0.414862213999342E+001
 0.413386987376365E+001
 0.412781806275846E+001
 0.413543917643863E+001
 0.409428199246357E+001
 0.411085379035773E+001
 0.411494177785026E+001
 0.410741027780975E+001
 0.413543692150382E+001
 0.413279864951795E+001
 0.414970395387399E+001
 0.414068112672551E+001
 0.409504161308178E+001
 0.409663620848908E+001
 0.410812875473685E+001
 0.410161732201182E+001
 0.401332137061755E+001
 0.401017655595819E+001
 0.401489826872580E+001
 0.401314757726099E+001
 0.400380678472610E+001
 0.401200907814270E+001
 0.400852083580084E+001
 0.400740709679855E+001
 0.410174389161998E+001
 0.412188148399442E+001
 0.414393471620380E+001
 0.412214479040874E+001
 0.408586539068702E+001
 0.410366473492835E+001
 0.407246551726970E+001
 0.408629899419522E+001
 0.409567211603376E+001
 0.408544077186663E+001
 0.408452340012379E+001
 0.408945156579610E+001
 0.410047908070863E+001
 0.413800953736235E+001
 0.412031767215335E+001
 0.411911831536977E+001
 0.409746341702266E+001
 0.411508411131180E+001
 0.410422118154384E+001
 0.410129435565306E+001
 0.414190226541477E+001
 0.411145095149804E+001
 0.412601827961407E+001
 0.412908394050103E+001
 0.415369560436407E+001
 0.414468672911248E+001
 0.414890674212896E+001
 0.414696500797876E+001
 0.412210758484196E+001
 0.410814062688420E+001
 0.410471647644295E+001
 0.411364038822072E+001
 0.415042363190923E+001
 0.413383576925403E+001
 0.413930541638836E+001
 0.414460067296183E+001
 0.411496560333702E+001
 0.411598977253193E+001
 0.410418827600767E+001
 0.410995389703789E+001
 0.409474561753924E+001
 0.410781752841922E+001
 0.409817604528391E+001
 0.410178315970825E+001
 0.413257608159206E+001
 0.413388148539936E+001
 0.412416506521400E+001
 0.412868793302979E+001
 0.415595730298096E+001
 0.415499347715222E+001
 0.415111844098733E+001
 0.415449090250228E+001
 0.412401183484573E+001
 0.410940744225785E+001
 0.413978435202730E+001
 0.412939482884290E+001
 0.415602778932835E+001
 0.415575032954304E+001
 0.415244303844291E+001
 0.415463346140042E+001
 0.415987763587766E+001
 0.416427259512115E+001
 0.415909101322784E+001
 0.416304746335446E+001
 0.413403234312718E+001
 0.415062283513264E+001
 0.413952006256024E+001
 0.414506740370064E+001
 0.414120648182335E+001
 0.415179940372946E+001
 0.414829481438040E+001
 0.414590234678304E+001
 0.412875354935043E+001
 0.411937843815826E+001
 0.411920248702013E+001
 0.412395292564797E+001
 0.412323207876660E+001
 0.412009213939288E+001
 0.413148746395848E+001
 0.412622122416396E+001
 0.413443533297588E+001
 0.413300604604380E+001
 0.412409728174246E+001
 0.412894862593428E+001
 0.413780030560361E+001
 0.413683821931346E+001
 0.414516617478132E+001
 0.414164343973745E+001
 0.402921147945027E+001
 0.402375770846728E+001
 0.403446819113008E+001
 0.403004030519396E+001
 0.407235590992002E+001
 0.407340112312815E+001
 0.408296969085940E+001
 0.407635537355857E+001
 0.407437749500426E+001
 0.407877584426592E+001
 0.407747967354841E+001
 0.407603519575759E+001
 0.407628124177797E+001
 0.407354624734893E+001
 0.407297103725916E+001
 0.407477192183774E+001
 0.410223928674189E+001
 0.411107266168888E+001
 0.408289904540654E+001
 0.409434767542850E+001
 0.408044019512003E+001
 0.410216749586478E+001
 0.408932583969709E+001
 0.409187271136578E+001
 0.407208295205928E+001
 0.407738343981975E+001
 0.407285086865057E+001
 0.407424935927096E+001
 0.409837584183164E+001
 0.411377746974866E+001
 0.411358365732643E+001
 0.410596090137453E+001
 0.403983731162172E+001
 0.403428106122870E+001
 0.404506707423651E+001
 0.404115832772063E+001
 0.406756909667352E+001
 0.404654265821964E+001
 0.404382656980791E+001
 0.405076478879503E+001
 0.405845612702789E+001
 0.406690599391596E+001
 0.406699329644104E+001
 0.406398540408879E+001
 0.400574223288431E+001
 0.401590021204898E+001
 0.401589104940545E+001
 0.401050197061128E+001
 0.407327248052169E+001
 0.406082220897269E+001
 0.405594831981477E+001
 0.406562283382103E+001
 0.405619324897181E+001
 0.406504985860137E+001
 0.405733811631048E+001
 0.405918399313777E+001
 0.406059113817189E+001
 0.406581698812082E+001
 0.405622616199162E+001
 0.406007388857665E+001
 0.406754980696985E+001
 0.408779947700073E+001
 0.407214868316925E+001
 0.407760441055652E+001
 0.402725232680807E+001
 0.403689964304665E+001
 0.403944181600062E+001
 0.403362787623259E+001
 0.410617155374241E+001
 0.413454670283495E+001
 0.409642193727719E+001
 0.411045067071652E+001
 0.407565976209980E+001
 0.405444419675761E+001
 0.407319418419622E+001
 0.406712737387934E+001
 0.404591424417099E+001
 0.405119701883432E+001
 0.405319698677152E+001
 0.404814236327080E+001
 0.405504976660757E+001
 0.405107446370843E+001
 0.404587729509239E+001
 0.405079724294087E+001
 0.405118716828494E+001
 0.404198625200677E+001
 0.403820810764777E+001
 0.404559285807031E+001
 0.409371315554528E+001
 0.407100414085575E+001
 0.408469783170723E+001
 0.408120654838417E+001
 0.410984166584594E+001
 0.414431064366204E+001
 0.411052747785269E+001
 0.411901480896231E+001
 0.413347692990717E+001
 0.410729528024319E+001
 0.409798327327189E+001
 0.410811568188866E+001
 0.408318131388758E+001
 0.407643297813440E+001
 0.405167114667500E+001
 0.407120887710947E+001
 0.400383267962826E+001
 0.401241914845032E+001
 0.400956837667424E+001
 0.400764285887311E+001
 0.402749993760445E+001
 0.402810881715561E+001
 0.403665647693681E+001
 0.403049848468048E+001
 0.408505987117356E+001
 0.408594034813635E+001
 0.405290233687388E+001
 0.407655490191199E+001
 0.406680737619721E+001
 0.403644457526614E+001
 0.405522826951846E+001
 0.405329931949737E+001
 0.400828899673959E+001
 0.401883559170110E+001
 0.400478407672451E+001
 0.400771689656956E+001
 0.401857194690189E+001
 0.401204877918681E+001
 0.402351341726952E+001
 0.401350975643209E+001
 0.407943009602812E+001
 0.404782151226554E+001
 0.406027649364463E+001
 0.406163240235777E+001
 0.405434090667084E+001
 0.405089002045842E+001
 0.407307996768213E+001
 0.405674526291301E+001
 0.402803986528657E+001
 0.403400504121367E+001
 0.402078218321066E+001
 0.402640433507238E+001
 0.404452047936913E+001
 0.407651781411630E+001
 0.404454445915635E+001
 0.405268737665007E+001
 0.409055712033176E+001
 0.407040290390742E+001
 0.409113446782568E+001
 0.408412037137448E+001
 0.401069875472352E+001
 0.402574158539663E+001
 0.402723717888966E+001
 0.402121212180828E+001
 0.401835246173412E+001
 0.402189711923929E+001
 0.401262055692459E+001
 0.401548894229841E+001
 0.403879697863030E+001
 0.404598150654318E+001
 0.403131386820081E+001
 0.403805623716254E+001
 0.412857873746031E+001
 0.412780821362146E+001
 0.411542142668773E+001
 0.412178142163752E+001
 0.402083565704943E+001
 0.401621067810380E+001
 0.401158425054982E+001
 0.401392374680154E+001
 0.401716146947182E+001
 0.400655232613539E+001
 0.400598375569858E+001
 0.400558058199740E+001
 0.407277602100891E+001
 0.406837950010453E+001
 0.407142640434648E+001
 0.407116171276293E+001
 0.406912554309452E+001
 0.407083318418551E+001
 0.406668306771703E+001
 0.406797290569103E+001
 0.404139439914913E+001
 0.404648523068029E+001