# vtk DataFile Version 3.0
Unstructured Grid
ASCII
DATASET UNSTRUCTURED_GRID
FIELD FieldData 1
TIME 1 1 float
  0.178125E+02
POINTS          640 double
 0.000000000000000E+000 0.000000000000000E+000 0.000000000000000E+000
 0.100000000000000E+001 0.000000000000000E+000 0.000000000000000E+000
 0.100000000000000E+001 0.100000000000000E+001 0.000000000000000E+000
 0.000000000000000E+000 0.100000000000000E+001 0.000000000000000E+000
 0.125000000000000E+000 0.250000000000000E+000 0.000000000000000E+000
 0.375000000000000E+000 0.250000000000000E+000 0.000000000000000E+000
 0.375000000000000E+000 0.750000000000000E+000 0.000000000000000E+000
 0.125000000000000E+000 0.750000000000000E+000 0.000000000000000E+000
 0.625000000000000E+000 0.250000000000000E+000 0.000000000000000E+000
 0.875000000000000E+000 0.250000000000000E+000 0.000000000000000E+000
 0.875000000000000E+000 0.750000000000000E+000 0.000000000000000E+000
 0.625000000000000E+000 0.750000000000000E+000 0.000000000000000E+000
 0.100000000000000E+001 0.500000000000000E+000 0.000000000000000E+000
 0.000000000000000E+000 0.500000000000000E+000 0.000000000000000E+000
 0.500000000000000E+000 0.000000000000000E+000 0.000000000000000E+000
 0.125000000000000E+000 0.500000000000000E+000 0.000000000000000E+000
 0.000000000000000E+000 0.750000000000000E+000 0.000000000000000E+000
 0.000000000000000E+000 0.250000000000000E+000 0.000000000000000E+000
 0.000000000000000E+000 0.875000000000000E+000 0.000000000000000E+000
 0.000000000000000E+000 0.125000000000000E+000 0.000000000000000E+000
 0.625000000000000E-001 0.812500000000000E+000 0.000000000000000E+000
 0.125000000000000E+000 0.375000000000000E+000 0.000000000000000E+000
 0.125000000000000E+000 0.625000000000000E+000 0.000000000000000E+000
 0.500000000000000E+000 0.100000000000000E+001 0.000000000000000E+000
 0.250000000000000E+000 0.100000000000000E+001 0.000000000000000E+000
 0.125000000000000E+000 0.100000000000000E+001 0.000000000000000E+000
 0.729166666666667E-001 0.885416666666667E+000 0.000000000000000E+000
 0.000000000000000E+000 0.625000000000000E+000 0.000000000000000E+000
 0.625000000000000E-001 0.562500000000000E+000 0.000000000000000E+000
 0.375000000000000E+000 0.500000000000000E+000 0.000000000000000E+000
 0.375000000000000E+000 0.100000000000000E+001 0.000000000000000E+000
 0.250000000000000E+000 0.000000000000000E+000 0.000000000000000E+000
 0.625000000000000E-001 0.187500000000000E+000 0.000000000000000E+000
 0.143518518518519E+000 0.775462962962963E-001 0.000000000000000E+000
 0.156250000000000E+000 0.156250000000000E+000 0.000000000000000E+000
 0.729166666666667E-001 0.114583333333333E+000 0.000000000000000E+000
 0.125000000000000E+000 0.000000000000000E+000 0.000000000000000E+000
 0.250000000000000E+000 0.250000000000000E+000 0.000000000000000E+000
 0.375000000000000E+000 0.000000000000000E+000 0.000000000000000E+000
 0.187500000000000E+000 0.218750000000000E+000 0.000000000000000E+000
 0.312500000000000E+000 0.762453007518797E-001 0.000000000000000E+000
 0.270259392278489E+000 0.159169301283415E+000 0.000000000000000E+000
 0.365310977506407E+000 0.155367112827996E+000 0.000000000000000E+000
 0.312500000000000E+000 0.216265619131990E+000 0.000000000000000E+000
 0.500000000000000E+000 0.189389379011873E+000 0.000000000000000E+000
 0.426456487258648E+000 0.196919158251449E+000 0.000000000000000E+000
 0.451620395371675E+000 0.941243892751461E-001 0.000000000000000E+000
 0.381804756165356E+000 0.871724813114945E-001 0.000000000000000E+000
 0.437500000000000E+000 0.273708879364394E-001 0.000000000000000E+000
 0.000000000000000E+000 0.375000000000000E+000 0.000000000000000E+000
 0.625000000000000E-001 0.312500000000000E+000 0.000000000000000E+000
 0.250000000000000E+000 0.750000000000000E+000 0.000000000000000E+000
 0.158482142857143E+000 0.851934523809524E+000 0.000000000000000E+000
 0.210861885404568E+000 0.921875000000000E+000 0.000000000000000E+000
 0.136017278952732E+000 0.925863358051789E+000 0.000000000000000E+000
 0.625000000000000E-001 0.687500000000000E+000 0.000000000000000E+000
 0.250000000000000E+000 0.437500000000000E+000 0.000000000000000E+000
 0.247528011619582E+000 0.839830719156545E+000 0.000000000000000E+000
 0.312500000000000E+000 0.796669265575374E+000 0.000000000000000E+000
 0.419664368355990E+000 0.875000000000000E+000 0.000000000000000E+000
 0.313183356674252E+000 0.918387829019328E+000 0.000000000000000E+000
 0.312500000000000E+000 0.100000000000000E+001 0.000000000000000E+000
 0.380617553087688E+000 0.931527612480385E+000 0.000000000000000E+000
 0.187500000000000E+000 0.785936956899548E+000 0.000000000000000E+000
 0.350379273974835E+000 0.857317802397078E+000 0.000000000000000E+000
 0.228046514569416E+000 0.817347524546315E-001 0.000000000000000E+000
 0.187500000000000E+000 0.312500000000000E+000 0.000000000000000E+000
 0.625000000000000E-001 0.437500000000000E+000 0.000000000000000E+000
 0.197916666666667E+000 0.385416666666667E+000 0.000000000000000E+000
 0.375000000000000E+000 0.375000000000000E+000 0.000000000000000E+000
 0.750000000000000E+000 0.000000000000000E+000 0.000000000000000E+000
 0.625000000000000E-001 0.959280303030303E+000 0.000000000000000E+000
 0.234375000000000E+000 0.562500000000000E+000 0.000000000000000E+000
 0.187500000000000E+000 0.687500000000000E+000 0.000000000000000E+000
 0.193892045454545E+000 0.618607954545455E+000 0.000000000000000E+000
 0.375000000000000E+000 0.625000000000000E+000 0.000000000000000E+000
 0.283775504647110E+000 0.640801989544002E+000 0.000000000000000E+000
 0.281298714846257E+000 0.504888901855782E+000 0.000000000000000E+000
 0.331282779604339E+000 0.562500000000000E+000 0.000000000000000E+000
 0.338845441361880E+000 0.687500000000000E+000 0.000000000000000E+000
 0.500000000000000E+000 0.775815254846569E+000 0.000000000000000E+000
 0.625000000000000E-001 0.407196969696970E-001 0.000000000000000E+000
 0.328125000000000E+000 0.437500000000000E+000 0.000000000000000E+000
 0.284143518518519E+000 0.340856481481482E+000 0.000000000000000E+000
 0.312500000000000E+000 0.278356481481482E+000 0.000000000000000E+000
 0.625000000000000E+000 0.500000000000000E+000 0.000000000000000E+000
 0.410581328448014E+000 0.312500000000000E+000 0.000000000000000E+000
 0.543730092976870E+000 0.258404709955172E+000 0.000000000000000E+000
 0.625000000000000E+000 0.375000000000000E+000 0.000000000000000E+000
 0.500000000000000E+000 0.404784409423024E+000 0.000000000000000E+000
 0.590394028376448E+000 0.312500000000000E+000 0.000000000000000E+000
 0.467392923590959E+000 0.261422480241605E+000 0.000000000000000E+000
 0.508234229043035E+000 0.327522431406248E+000 0.000000000000000E+000
 0.625000000000000E+000 0.000000000000000E+000 0.000000000000000E+000
 0.537311919648379E+000 0.110523699730938E+000 0.000000000000000E+000
 0.750000000000000E+000 0.250000000000000E+000 0.000000000000000E+000
 0.593146640296986E+000 0.172723366619635E+000 0.000000000000000E+000
 0.623771215502605E+000 0.890722450407200E-001 0.000000000000000E+000
 0.687500000000000E+000 0.454068088573020E-001 0.000000000000000E+000
 0.793069391389776E+000 0.125000000000000E+000 0.000000000000000E+000
 0.695513657869308E+000 0.162768437982326E+000 0.000000000000000E+000
 0.687500000000000E+000 0.250000000000000E+000 0.000000000000000E+000
 0.875000000000000E+000 0.500000000000000E+000 0.000000000000000E+000
 0.727921748554044E+000 0.101601148842529E+000 0.000000000000000E+000
 0.759582972952604E+000 0.183381972603444E+000 0.000000000000000E+000
 0.875000000000000E+000 0.375000000000000E+000 0.000000000000000E+000
 0.718750000000000E+000 0.343750000000000E+000 0.000000000000000E+000
 0.697916666666667E+000 0.437500000000000E+000 0.000000000000000E+000
 0.750000000000000E+000 0.572048611111111E+000 0.000000000000000E+000
 0.787123226950355E+000 0.408133865248227E+000 0.000000000000000E+000
 0.804687500000000E+000 0.320312500000000E+000 0.000000000000000E+000
 0.700214460784314E+000 0.513965482026144E+000 0.000000000000000E+000
 0.783021635712153E+000 0.493366127722916E+000 0.000000000000000E+000
 0.625000000000000E+000 0.625000000000000E+000 0.000000000000000E+000
 0.848380638879200E+000 0.437500000000000E+000 0.000000000000000E+000
 0.562500000000000E+000 0.404604515401992E-001 0.000000000000000E+000
 0.875000000000000E+000 0.625000000000000E+000 0.000000000000000E+000
 0.750000000000000E+000 0.750000000000000E+000 0.000000000000000E+000
 0.697046765904942E+000 0.621060933265583E+000 0.000000000000000E+000
 0.200520833333333E+000 0.494791666666667E+000 0.000000000000000E+000
 0.429642360217793E+000 0.800955091165693E+000 0.000000000000000E+000
 0.453073336954457E+000 0.687500000000000E+000 0.000000000000000E+000
 0.548183885155829E+000 0.693587592964698E+000 0.000000000000000E+000
 0.750000000000000E+000 0.100000000000000E+001 0.000000000000000E+000
 0.573843760532799E+000 0.437500000000000E+000 0.000000000000000E+000
 0.500000000000000E+000 0.550126792242997E+000 0.000000000000000E+000
 0.511972906944656E+000 0.477455600833011E+000 0.000000000000000E+000
 0.437507615834863E+000 0.452402202857321E+000 0.000000000000000E+000
 0.546458141439317E+000 0.614345103225503E+000 0.000000000000000E+000
 0.571440414895569E+000 0.547357897962524E+000 0.000000000000000E+000
 0.450991397292447E+000 0.610087136082382E+000 0.000000000000000E+000
 0.875000000000000E+000 0.000000000000000E+000 0.000000000000000E+000
 0.100000000000000E+001 0.250000000000000E+000 0.000000000000000E+000
 0.100000000000000E+001 0.375000000000000E+000 0.000000000000000E+000
 0.687500000000000E+000 0.700324699898860E+000 0.000000000000000E+000
 0.812500000000000E+000 0.687500000000000E+000 0.000000000000000E+000
 0.804621866531165E+000 0.617121866531165E+000 0.000000000000000E+000
 0.825181931429427E+000 0.549770415540467E+000 0.000000000000000E+000
 0.100000000000000E+001 0.625000000000000E+000 0.000000000000000E+000
 0.100000000000000E+001 0.750000000000000E+000 0.000000000000000E+000
[...]
CELL_DATA         1212
SCALARS tdens double 1
LOOKUP_TABLE default
 0.836958527349997E-002
 0.587083959174929E-002
 0.640341424199719E-002
 0.655655113737116E-002
 0.200511981704216E-001
 0.275901669272028E-001
 0.190009026852450E-001
 0.210977609178783E-001
 0.177522227030684E+000
 0.105370971944628E+000
 0.889416275133459E-001
 0.165096689273514E+000
 0.495199755425267E-002
 0.516680519186139E-002
 0.438178030626419E-002
 0.466203567126725E-002
 0.586893413352761E-002
 0.835722702680445E-002
 0.640093745014219E-002
 0.655523700093516E-002
 0.586944177393975E-002
 0.746526306207688E-002
 0.757420194424771E-002
 0.684477857809820E-002
 0.107131975820948E-001
 0.862811744284457E-002
 0.879891762809614E-002
 0.931465193897545E-002
 0.561431236159956E-001
 0.392532036293619E-001
 0.264434133371879E-001
 0.393419320631931E-001
 0.895297823382414E-001
 0.199337216793228E+000
 0.110324129288416E+000
 0.105114732040716E+000
 0.383928988922529E-002
 0.342451733058407E-002
 0.368951052451310E-002
 0.359735289457325E-002
 0.298850761892282E-001
 0.213339132034105E-001
 0.271058045693964E-001
 0.262228303867556E-001
 0.681631496860681E-002
 0.784184054999438E-002
 0.824189396316411E-002
 0.763404101316330E-002
 0.169042621257858E-001
 0.151175421716354E-001
 0.831934685028076E-002
 0.120603839657192E-001
 0.503536817516292E+000
 0.381281183575044E+000
 0.466513962795601E+000
 0.411296352691603E+000
 0.142193797658984E-001
 0.139742720173203E-001
 0.148475106539250E-001
 0.142947697638757E-001
 0.465860152961365E+000
 0.372135299326087E+000
 0.519399471022373E+000
 0.401087878156692E+000
 0.442329506028331E-002
 0.388938870581215E-002
 0.403353043268857E-002
 0.414216181468532E-002
 0.431173833194432E-002
 0.461795546713930E-002
 0.487782217215504E-002
 0.462539471785462E-002
 0.443876404828527E-002
 0.402545729429340E-002
 0.386867918268998E-002
 0.406470875685736E-002
 0.454192324081077E+000
 0.419208268259596E+000
 0.298438830626744E+000
 0.465606473339809E+000
 0.178199697073816E-001
 0.115377909272550E-001
 0.200414416170351E-001
 0.154914638110738E-001
 0.381093150547109E-002
 0.367243831246062E-002
 0.341993320036124E-002
 0.357910825449651E-002
 0.278854127381840E-001
 0.494462049242073E-001
 0.578965630200989E-001
 0.495938067630527E-001
 0.579073173935954E-002
 0.523399690078615E-002
 0.566857770470448E-002
 0.559994498265328E-002
 0.446988016108104E-002
 0.390301265047110E-002
 0.404396490412947E-002
 0.415928228692771E-002
 0.921976991432011E-002
 0.987410182871025E-002
 0.131222188285694E-001
 0.105513649650362E-001
 0.530688337614828E-002
 0.501383402314910E-002
 0.577052092296358E-002
 0.528995302556231E-002
 0.319886144242770E-001
 0.121448124721597E+000
 0.845830966079138E-001
 0.859630484616916E-001
 0.978262958430486E-002
 0.595759932909465E-002
 0.606515151094820E-002
 0.702843514305576E-002
 0.226063348581188E-001
 0.481377534623883E-001
 0.276854638764729E-001
 0.284330521391250E-001
 0.765130243629794E-002
 0.578314120855562E-002
 0.631781392011753E-002
 0.655369904655337E-002
 0.817901978004696E-002
 0.584643460527451E-002
 0.568578428677278E-002
 0.635437167000021E-002
 0.118234458851805E-001
 0.370364039043245E-001
 0.963276260162802E-002
 0.200730243788719E-001
 0.155657547516411E-001
 0.113903703472777E-001
 0.174409716075867E-001
 0.145975870908703E-001
 0.216692123629862E-001
 0.307529472719290E-001
 0.211686523623743E-001
 0.233664296047877E-001
 0.547089929402461E-002
 0.601997112092921E-002
 0.709170046518185E-002
 0.614340317982472E-002
 0.446153965523609E-002
 0.361257133334795E-002
 0.409827391758754E-002
 0.397409833848388E-002
 0.916346398407574E-002
 0.717796930007882E-002
 0.114272198537479E-001
 0.871596249284879E-002
 0.668126847119387E-002
 0.824347409065737E-002
 0.798293959107036E-002
 0.749088333374054E-002
 0.384421091009671E-002
 0.342468847139879E-002
 0.369677694879879E-002
 0.359981337356152E-002
 0.447515172740715E-002
 0.403948958639678E-002
 0.389892835727546E-002
 0.415423234901106E-002
 0.397748248143366E-002
 0.444291840988074E-002
 0.386473985787105E-002
 0.405781826235306E-002
 0.172542438279195E+000
 0.791519825670270E-001
 0.998848908046535E-001
 0.174771545429240E+000
 0.369362314610929E+000
 0.335376968522567E+000
 0.450038994832363E+000
 0.367917925535046E+000
 0.161058889281832E+000
 0.468279345244604E-001
 0.109032410159834E+000
 0.595729305187398E-001
 0.147676054275806E-001
 0.157315881261745E-001
 0.168906833990233E-001
 0.157523851584761E-001
 0.115180767248212E-001
 0.718972178320140E-002
 0.937417344839662E-002
 0.880156999955911E-002
 0.637225322897228E-002
 0.584412512526783E-002
 0.775270768726810E-002
 0.657958646117762E-002
 0.567007229651004E-002
 0.523344416795070E-002
 0.579151906809046E-002
 0.560030961177056E-002
 0.121133450397309E-001
 0.144868081607112E-001
 0.105059516472097E-001
 0.121124201548650E-001
 0.576918846085154E-002
 0.501276913561824E-002
 0.530597524536728E-002
 0.528895335775119E-002
 0.872854392975315E-002
 0.106702788283001E-001
 0.926445063170609E-002
 0.949667880450812E-002
 0.446115564485903E-002
 0.488102678404904E-002
 0.544914259766244E-002
 0.497447560596188E-002
 0.404060793276820E-002
 0.433275255325620E-002
 0.357927826313109E-002
 0.387908662323928E-002
 0.561792383258733E-002
 0.723175602747019E-002
 0.618529224932440E-002
 0.624157804239993E-002
 0.703256758703152E-002
 0.860242354635684E-002
 0.868924391464661E-002
 0.794724385611587E-002
 0.140447258943593E-001
 0.156814712992372E-001
 0.148964305005560E-001
 0.148446025195636E-001
 0.122587693140040E-001
 0.170996201227128E-001
 0.189933185331931E-001
 0.157750449955242E-001
 0.813645329588275E-001
 0.465791425186651E-001
 0.447169817332330E-001
 0.491492098197206E-001
 0.526992969814476E-001
 0.785623212653831E-001
 0.757656354778395E-001
 0.699051651742408E-001
 0.392655162583871E-001
 0.574392687226723E-001
 0.292469039060134E-001
 0.403519847372690E-001
 0.519000258525547E-002
 0.460087640531256E-002
 0.562218329290178E-002
 0.503246347392996E-002
 0.568195804249834E-001
 0.290996695269585E-001
 0.292943347725747E-001
 0.384503274293213E-001
 0.300531257235445E-001
 0.597201350490182E-001
 0.430066443000526E-001
 0.411782854215103E-001
 0.937297267952891E-002
 0.113185844316002E-001
 0.110628354759029E-001
 0.105172504299035E-001
 0.172876714333137E-001
 0.138281679749008E-001
 0.193161351536167E-001
 0.166777033159502E-001
 0.125810584919559E-001
 0.134646832806889E-001
 0.138747235110775E-001
 0.131052533452867E-001
 0.148100890510799E+000
 0.159016344695279E+000
 0.253647626746567E+000
 0.146688874664524E+000
 0.453811412998627E-001
 0.236711104717952E-001
 0.381309485841997E-001
 0.373151982629397E-001
 0.244065767672477E-001
 0.337805868145002E-001
 0.217613624627961E-001
 0.255171483141944E-001
 0.300016901653665E-001
 0.306270856616936E-001
 0.201785513648635E-001
 0.275030388665728E-001
 0.105833605208288E-001
 0.112791272908696E-001
 0.931228177472222E-002
 0.103799774984580E-001
 0.193836705818556E-001
 0.298315468366400E-001
 0.234664909991379E-001
 0.233073954554135E-001
 0.473135228826522E-001
 0.807962898272732E-001
 0.838736971928486E-001
 0.773587067439105E-001
 0.152865561013427E-001
 0.186544470831611E-001
 0.137601270415783E-001
 0.154672444630836E-001
 0.433419339283841E-002
 0.404285461120124E-002
 0.357997306268950E-002
 0.388038588917055E-002
 0.121148185259173E-001
 0.136371590296867E-001
 0.123000576993724E-001
 0.126086312007591E-001
 0.172810241014096E-001
 0.197390420670944E-001
 0.161007658286960E-001
 0.174532803346787E-001
 0.128011954345999E-001
 0.136855326411658E-001
 0.134719917586751E-001
 0.133867257666938E-001
 0.139321549616631E-001
 0.151817791534750E-001
 0.139267058412615E-001
 0.142783665820780E-001
 0.452973783451732E-002
 0.534013528933253E-002
 0.519202563352637E-002
 0.498542115164108E-002
 0.494739112035939E-002
 0.438724654182008E-002
 0.516873753703573E-002
 0.466450628775014E-002
 0.975083999621800E-002
 0.605667188407825E-002
 0.595641509934998E-002
 0.701932489377332E-002
 0.171392009092551E-001
 0.187265915308145E-001
 0.110623077378902E-001
 0.148276421846241E-001
 0.135184449920252E-001
 0.120314015937342E-001
 0.981757939566997E-002
 0.116228884662216E-001
 0.636338979593316E-002
 0.762737798048114E-002
 0.583155521748705E-002
 0.653219437204355E-002
 0.329309454097138E+000
 0.224565876165239E+000
 0.270521927976404E+000
 0.275746480218401E+000
 0.909257720617438E-002
 0.109288793758639E-001
 0.100978471979576E-001
 0.984880913088645E-002
 0.443973446520574E-002
 0.531564161884593E-002
 0.486151380520355E-002
 0.491097169957697E-002
 0.743365194255392E-002
 0.609188635713886E-002
 0.571244688730516E-002
 0.641252232869882E-002
 0.533628775938504E-002
 0.452437375683202E-002
 0.518842933048626E-002
 0.498048365287306E-002
 0.818388749834744E-002
 0.568291733136153E-002
 0.584472487594187E-002
 0.635281325916212E-002
 0.162912222568191E+000
 0.115004740977098E+000
 0.120421187797284E+000
 0.141015183134779E+000
 0.117655145701146E-001
 0.597590939445522E-001
 0.114389359897025E-001
 0.331265186962424E-001
 0.454298218979415E-001
 0.738232707977969E-001
 0.768222844995020E-001
 0.648097688292570E-001
 0.176932643228739E-001
 0.137622773863488E-001
 0.162494405539803E-001
 0.157307154753328E-001
 0.335646104840561E-001
 0.219532866995035E-001
 0.429640379436394E-001
 0.337360731157530E-001
 0.234886843441781E-001
 0.360437511733007E-001
 0.428536828122213E-001
 0.338569301784034E-001
 0.136745372652450E-001
 0.145969848612034E-001
 0.126755309344223E-001
 0.137030581890453E-001
 0.213384290841586E-001
 0.196652988763260E-001
 0.289922177740631E-001
 0.225077381479675E-001
 0.142211507860169E-001
 0.135073450232388E-001
 0.168649186905063E-001
 0.146357204435152E-001
 0.149228582985311E-001
 0.176728609861394E-001
 0.158199652150767E-001
 0.160629583802916E-001
 0.127902621245097E-001
 0.108746874560720E-001
 0.119749204505887E-001
 0.118222088138546E-001
 0.110807611764243E-001
 0.126863133428787E-001
 0.119740013236683E-001
 0.117500052459197E-001
 0.288061660002147E-001
 0.558239103685910E-001
 0.275495092654145E-001
 0.363244413393302E-001
 0.211647225715614E-001
 0.257371161460386E-001
 0.464878229704567E-001
 0.263472975567265E-001
 0.582887911216516E-001
 0.266018935015635E-001
 0.371452358157015E-001
 0.362787893446189E-001
 0.151813354609647E-001
 0.181751261011379E-001
 0.183206864156215E-001
 0.172225450862629E-001
 0.106034943900478E-001
 0.100604423934982E-001
 0.143947021222469E-001
 0.114817820195962E-001
 0.346890229002378E+000
 0.236726472549056E+000
 0.173845890365962E+000
 0.327321289031578E+000
 0.280044404222310E-001
 0.580083910078453E-001
 0.489514588297254E-001
 0.495376196795370E-001
 0.115733674071014E-001
 0.132919602578014E-001
 0.119889152512849E-001
 0.122782335297997E-001
 0.466580555991754E+000
 0.422939720443342E+000
 0.496198373342021E+000
 0.452221706406205E+000
 0.318365762326875E-001
 0.683717653655380E-001
 0.889195508736870E-001
 0.538598917762680E-001
 0.901371314340351E-001
 0.167771799893468E+000
 0.881563034092039E-001
 0.109062470332444E+000
 0.215881926592397E+000
 0.154731684652951E+000
 0.241176685471556E+000
 0.181264608484197E+000
 0.169307313164560E-001
 0.232135775786548E-001
 0.190297115243408E-001
 0.192763728574353E-001
 0.342491007774149E-002
 0.384786956719016E-002
 0.370020827957414E-002
 0.360148022449759E-002
 0.381844548378900E-002
 0.341981529398040E-002
 0.367472918008171E-002
 0.358092016712163E-002
 0.912128923786033E-001
 0.181401268151639E+000
 0.953532149471602E-001
 0.115283620499769E+000
 0.547115161069273E-002
 0.457651581446944E-002
 0.515921016345075E-002
 0.496982541137547E-002
 0.260029292368691E+000
 0.273239884896260E+000
 0.376005949946129E+000
 0.330804894375136E+000
 0.311407799263277E-001
 0.873064944318840E-001
 0.665805166623178E-001
 0.521241161397506E-001
 0.118376192372580E-001
 0.961748714761087E-002
 0.368879829385265E-001
 0.200289760147981E-001
 0.113849497442802E-001
 0.537942410690688E-001
 0.112618450660951E-001
 0.307815877215038E-001
 0.495803957326443E+000
 0.491218186363897E+000
 0.489808472850874E+000
 0.487944750525302E+000
 0.326773361236570E+000
 0.431588759057978E+000
 0.388688136077688E+000
 0.372171838267601E+000
 0.256722143046625E+000
 0.152853017613349E+000
 0.174089838285151E+000
 0.185184950576221E+000
 0.217779508265549E+000
 0.331331098044907E+000
 0.291446087019300E+000
 0.283570339507614E+000
 0.203117539452667E+000
 0.104353199299768E+000
 0.208850391101922E+000
 0.183312261819888E+000
 0.136252826124595E+000
 0.217639258691928E+000
 0.177716249240588E+000
 0.187110897225021E+000
 0.265207608909455E+000
 0.238862761972478E+000
 0.326037913253880E+000
 0.285941796505960E+000
 0.470848177590548E+000
 0.507321604664439E+000
 0.427798887358878E+000
 0.460650743860226E+000
 0.359582684623529E+000
 0.401901972658390E+000
 0.486752263795450E+000
 0.404539127757091E+000
 0.372414822960103E+000
 0.214588424681948E+000
 0.268603040716427E+000
 0.280322839412700E+000
 0.969676501608557E-001
 0.236591812423493E+000
 0.138565586037682E+000
 0.110554391938448E+000
 0.276212595371679E+000
 0.204248890600572E+000
 0.393030834656696E+000
 0.280414128258898E+000
 0.488533727818087E-001
 0.420422666047631E-001
 0.762805971509102E-001
 0.486388893947444E-001
 0.461649389150862E-002
 0.430942424137166E-002
 0.487687763607797E-002
 0.462375747167546E-002
 0.361192146695989E-002
 0.445438455066487E-002
 0.409715282102548E-002
 0.397279348170385E-002
 0.311410602068339E+000
 0.373606838981454E+000
 0.416855546114808E+000
 0.369784919924745E+000
 0.265421905862670E+000
 0.336279779808145E+000
 0.249586463765578E+000
 0.304368761348532E+000
 0.141717298390995E+000
 0.201757409039060E+000
 0.933934035233343E-001
 0.126126779176852E+000
 0.324121024124017E+000
 0.457622383476151E+000
 0.393528939277771E+000
 0.384913163469251E+000
 0.867450364903915E-001
 0.100520180576986E+000
 0.124511619756147E+000
 0.103045493499702E+000
 0.400140492353931E+000
 0.197547919894840E+000
 0.209112381397371E+000
 0.208137285216359E+000
 0.436908242902684E+000
 0.335902323746048E+000
 0.497247202551392E+000
 0.493623495653021E+000
 0.179962051037420E+000
 0.764020810365793E-001
 0.635633231067020E-001
 0.782038892258881E-001
 0.408247275347447E+000
 0.212929306656825E+000
 0.293792818093629E+000
 0.289395213008630E+000
 0.891179882423585E-001
 0.812848967919895E-001
 0.493605394577218E-001
 0.772922920227155E-001
 0.366325669050644E-001
 0.722773989787461E-001
 0.418657077072772E-001
 0.439349175962944E-001
 0.257479071333296E+000
 0.240922992526229E+000
 0.158925428796451E+000
 0.251015029923462E+000
 0.517376685222302E+000
 0.550467956008489E+000
 0.556295010274733E+000
 0.540892068556492E+000
 0.184922903095380E+000
 0.151100183757313E+000
 0.410180151612480E+000
 0.169910192059021E+000
 0.510193608615363E+000
 0.498475955861298E+000
 0.540519860445440E+000
 0.513561491384820E+000
 0.530614249186431E+000
 0.488943156701791E+000
 0.501359509785571E+000
 0.485130801865469E+000
 0.201715787939002E+000
 0.407999338860020E+000
 0.293397096142420E+000
 0.301164630038568E+000
 0.388353880886983E+000
 0.452977911284168E+000
 0.515688111374766E+000
 0.478544726663589E+000
 0.267719407490024E+000
 0.155454647168442E+000
 0.152329099377719E+000
 0.155048397947823E+000
 0.162483124514144E+000
 0.150490182012456E+000
 0.251480406357059E+000
 0.151575328256600E+000
 0.247132138067870E+000
 0.259546387700690E+000
 0.154837608867302E+000
 0.252844978306665E+000
 0.363190715309328E+000
 0.388704939030730E+000
 0.533526063886941E+000
 0.359549365815204E+000
 0.695864538862199E-002
 0.622793706625662E-002
 0.845130799033002E-002
 0.714260779816445E-002
 0.170228032163603E-001
 0.208904969572288E-001
 0.239654275885131E-001
 0.202725171076159E-001
 0.142469187587841E-001
 0.167081067475903E-001
 0.160776873985371E-001
 0.155633277823819E-001
 0.160364133274232E-001
 0.140297047237606E-001
 0.142894968064410E-001
 0.146627769965008E-001
 0.594103076115294E-001
 0.603200807918638E-001
 0.297232594780145E-001
 0.538524716033672E-001
 0.276680035676648E-001
 0.579254027503737E-001
 0.325901934791427E-001
 0.346497443433610E-001
 0.152149724079565E-001
 0.168087428124866E-001
 0.144978361258968E-001
 0.154459489080822E-001
 0.383471344437631E-001
 0.726640659778149E-001
 0.768883331113918E-001
 0.666427571496979E-001
 0.822302331260805E-002
 0.760432140667497E-002
 0.982721163454612E-002
 0.855480581784782E-002
 0.195043586871270E+000
 0.114330044239756E+000
 0.142581259957328E+000
 0.163300064622654E+000
 0.134951321067995E-001
 0.176478737775025E-001
 0.150766326933176E-001
 0.152737822018132E-001
 0.381420661435420E-002
 0.498939119400147E-002
 0.499781691545431E-002
 0.438775347946217E-002
 0.552105356595472E-001
 0.257181932324585E-001
 0.293321196705805E-001
 0.334326908179110E-001
 0.121736416621846E-001
 0.137055319906553E-001
 0.115497320392004E-001
 0.124248940214262E-001
 0.181592384611711E-001
 0.186501185457738E-001
 0.138187067162499E-001
 0.168053620006348E-001
 0.264372617927409E-001
 0.543124130006263E-001
 0.259790627406762E-001
 0.293397679814848E-001
 0.102748026545884E-001
 0.430829923055746E-001
 0.122971192070564E-001
 0.230598650897253E-001
 0.330085467272171E+000
 0.439276535091332E+000
 0.306619782574276E+000
 0.395400141742924E+000
 0.876455299382102E-001
 0.964713503154104E-001
 0.166354074107731E+000
 0.120412027863877E+000
 0.906843473764612E-002
 0.107256018877285E-001
 0.104922185791882E-001
 0.974398489241568E-002
 0.160335457643866E-001
 0.124710196893453E-001
 0.116187787614131E-001
 0.131073063737953E-001
 0.160443246688563E-001
 0.112245147201209E-001
 0.107461484216378E-001
 0.124553906814182E-001
 0.616714384908726E-001
 0.300257108908492E-001
 0.578964855545699E-001
 0.518480510944636E-001
 0.312408341866201E+000
 0.382891490953474E+000
 0.315594211249489E+000
 0.386357171186642E+000
 0.341414523030990E+000
 0.137559939239437E+000
 0.229994361078694E+000
 0.298881065687357E+000
 0.297988434264239E+000
 0.259716214824628E+000
 0.201609374448753E+000
 0.237925606518790E+000
 0.341749930943852E-002
 0.375149100671179E-002
 0.365826922273170E-002
 0.356931459749089E-002
 0.597072547372997E-002
 0.617866829839366E-002
 0.994299290115109E-002
 0.703480538892236E-002
 0.302253674752663E+000
 0.309806784521819E+000
 0.208910547579943E+000
 0.217074829743084E+000
 0.234816078089658E+000
 0.159663327243260E+000
 0.200116654781877E+000
 0.183808923136087E+000
 0.672821724963202E-001
 0.107608545780262E+000
 0.307453434005261E-001
 0.611954468677241E-001
 0.180890814775840E-001
 0.317340460068027E-001
 0.751441550210505E-001
 0.574635416607110E-001
 0.246570021497792E+000
 0.166657180075734E+000
 0.199877504769360E+000
 0.219935924870046E+000
 0.272954847713856E-001
 0.591150122444383E-001
 0.599526340188669E-001
 0.513023449661063E-001
 0.111412472362633E+000
 0.845814136048513E-001
 0.336249533882025E-001
 0.614214256617356E-001
 0.139384542577092E+000
 0.231146517523479E+000
 0.142725792915939E+000
 0.216426390729026E+000
 0.291391662291499E+000
 0.250422596633258E+000
 0.330866208927732E+000
 0.278228569319287E+000
 0.722076590106431E-001
 0.124964584874280E+000
 0.124792819704580E+000
 0.904120217626059E-001
 0.249620591391569E-001
 0.786872242050502E-001
 0.649431825404508E-001
 0.454357614341192E-001
 0.104773526815858E-001
 0.145101644108318E-001
 0.808754072326759E-002
 0.107497710021832E-001
 0.185880245642258E+000
 0.175270490535797E+000
 0.853069953668159E-001
 0.185683927819205E+000
 0.719953931350342E-002
 0.725413533515795E-002
 0.207643971845765E-001
 0.107204484858377E-001
 0.822488827923668E-001
 0.331294081099714E-001
 0.189708080022678E-001
 0.597574927832055E-001
 0.137212145925301E-001
 0.128298102984768E-001
 0.136366986334453E-001
 0.134445805863584E-001
 0.138700771233156E-001
 0.136626336277694E-001
 0.125987558056281E-001
 0.131993823161876E-001
 0.960632289444547E-001
 0.778334311196137E-001