# vtk DataFile Version 3.0
Unstructured Grid
ASCII
DATASET UNSTRUCTURED_GRID
FIELD FieldData 1
TIME 1 1 float
  0.268125E+02
POINTS          640 double
 0.000000000000000E+000 0.000000000000000E+000 0.000000000000000E+000
 0.100000000000000E+001 0.000000000000000E+000 0.000000000000000E+000
 0.100000000000000E+001 0.100000000000000E+001 0.000000000000000E+000
 0.000000000000000E+000 0.100000000000000E+001 0.000000000000000E+000
 0.125000000000000E+000 0.250000000000000E+000 0.000000000000000E+000
 0.375000000000000E+000 0.250000000000000E+000 0.000000000000000E+000
 0.375000000000000E+000 0.750000000000000E+000 0.000000000000000E+000
 0.125000000000000E+000 0.750000000000000E+000 0.000000000000000E+000
 0.625000000000000E+000 0.250000000000000E+000 0.000000000000000E+000
 0.875000000000000E+000 0.250000000000000E+000 0.000000000000000E+000
 0.875000000000000E+000 0.750000000000000E+000 0.000000000000000E+000
 0.625000000000000E+000 0.750000000000000E+000 0.000000000000000E+000
 0.100000000000000E+001 0.500000000000000E+000 0.000000000000000E+000
 0.000000000000000E+000 0.500000000000000E+000 0.000000000000000E+000
 0.500000000000000E+000 0.000000000000000E+000 0.000000000000000E+000
 0.125000000000000E+000 0.500000000000000E+000 0.000000000000000E+000
 0.000000000000000E+000 0.750000000000000E+000 0.000000000000000E+000
 0.000000000000000E+000 0.250000000000000E+000 0.000000000000000E+000
 0.000000000000000E+000 0.875000000000000E+000 0.000000000000000E+000
 0.000000000000000E+000 0.125000000000000E+000 0.000000000000000E+000
 0.625000000000000E-001 0.812500000000000E+000 0.000000000000000E+000
 0.125000000000000E+000 0.375000000000000E+000 0.000000000000000E+000
 0.125000000000000E+000 0.625000000000000E+000 0.000000000000000E+000
 0.500000000000000E+000 0.100000000000000E+001 0.000000000000000E+000
 0.250000000000000E+000 0.100000000000000E+001 0.000000000000000E+000
 0.125000000000000E+000 0.100000000000000E+001 0.000000000000000E+000
 0.729166666666667E-001 0.885416666666667E+000 0.000000000000000E+000
 0.000000000000000E+000 0.625000000000000E+000 0.000000000000000E+000
 0.625000000000000E-001 0.562500000000000E+000 0.000000000000000E+000
 0.375000000000000E+000 0.500000000000000E+000 0.000000000000000E+000
 0.375000000000000E+000 0.100000000000000E+001 0.000000000000000E+000
 0.250000000000000E+000 0.000000000000000E+000 0.000000000000000E+000
 0.625000000000000E-001 0.187500000000000E+000 0.000000000000000E+000
 0.143518518518519E+000 0.775462962962963E-001 0.000000000000000E+000
 0.156250000000000E+000 0.156250000000000E+000 0.000000000000000E+000
 0.729166666666667E-001 0.114583333333333E+000 0.000000000000000E+000
 0.125000000000000E+000 0.000000000000000E+000 0.000000000000000E+000
 0.250000000000000E+000 0.250000000000000E+000 0.000000000000000E+000
 0.375000000000000E+000 0.000000000000000E+000 0.000000000000000E+000
 0.187500000000000E+000 0.218750000000000E+000 0.000000000000000E+000
 0.312500000000000E+000 0.762453007518797E-001 0.000000000000000E+000
 0.270259392278489E+000 0.159169301283415E+000 0.000000000000000E+000
 0.365310977506407E+000 0.155367112827996E+000 0.000000000000000E+000
 0.312500000000000E+000 0.216265619131990E+000 0.000000000000000E+000
 0.500000000000000E+000 0.189389379011873E+000 0.000000000000000E+000
 0.426456487258648E+000 0.196919158251449E+000 0.000000000000000E+000
 0.451620395371675E+000 0.941243892751461E-001 0.000000000000000E+000
 0.381804756165356E+000 0.871724813114945E-001 0.000000000000000E+000
 0.437500000000000E+000 0.273708879364394E-001 0.000000000000000E+000
 0.000000000000000E+000 0.375000000000000E+000 0.000000000000000E+000
 0.625000000000000E-001 0.312500000000000E+000 0.000000000000000E+000
 0.250000000000000E+000 0.750000000000000E+000 0.000000000000000E+000
 0.158482142857143E+000 0.851934523809524E+000 0.000000000000000E+000
 0.210861885404568E+000 0.921875000000000E+000 0.000000000000000E+000
 0.136017278952732E+000 0.925863358051789E+000 0.000000000000000E+000
 0.625000000000000E-001 0.687500000000000E+000 0.000000000000000E+000
 0.250000000000000E+000 0.437500000000000E+000 0.000000000000000E+000
 0.247528011619582E+000 0.839830719156545E+000 0.000000000000000E+000
 0.312500000000000E+000 0.796669265575374E+000 0.000000000000000E+000
 0.419664368355990E+000 0.875000000000000E+000 0.000000000000000E+000
 0.313183356674252E+000 0.918387829019328E+000 0.000000000000000E+000
 0.312500000000000E+000 0.100000000000000E+001 0.000000000000000E+000
 0.380617553087688E+000 0.931527612480385E+000 0.000000000000000E+000
 0.187500000000000E+000 0.785936956899548E+000 0.000000000000000E+000
 0.350379273974835E+000 0.857317802397078E+000 0.000000000000000E+000
 0.228046514569416E+000 0.817347524546315E-001 0.000000000000000E+000
 0.187500000000000E+000 0.312500000000000E+000 0.000000000000000E+000
 0.625000000000000E-001 0.437500000000000E+000 0.000000000000000E+000
 0.197916666666667E+000 0.385416666666667E+000 0.000000000000000E+000
 0.375000000000000E+000 0.375000000000000E+000 0.000000000000000E+000
 0.750000000000000E+000 0.000000000000000E+000 0.000000000000000E+000
 0.625000000000000E-001 0.959280303030303E+000 0.000000000000000E+000
 0.234375000000000E+000 0.562500000000000E+000 0.000000000000000E+000
 0.187500000000000E+000 0.687500000000000E+000 0.000000000000000E+000
 0.193892045454545E+000 0.618607954545455E+000 0.000000000000000E+000
 0.375000000000000E+000 0.625000000000000E+000 0.000000000000000E+000
 0.283775504647110E+000 0.640801989544002E+000 0.000000000000000E+000
 0.281298714846257E+000 0.504888901855782E+000 0.000000000000000E+000
 0.331282779604339E+000 0.562500000000000E+000 0.000000000000000E+000
 0.338845441361880E+000 0.687500000000000E+000 0.000000000000000E+000
 0.500000000000000E+000 0.775815254846569E+000 0.000000000000000E+000
 0.625000000000000E-001 0.407196969696970E-001 0.000000000000000E+000
 0.328125000000000E+000 0.437500000000000E+000 0.000000000000000E+000
 0.284143518518519E+000 0.340856481481482E+000 0.000000000000000E+000
 0.312500000000000E+000 0.278356481481482E+000 0.000000000000000E+000
 0.625000000000000E+000 0.500000000000000E+000 0.000000000000000E+000
 0.410581328448014E+000 0.312500000000000E+000 0.000000000000000E+000
 0.543730092976870E+000 0.258404709955172E+000 0.000000000000000E+000
 0.625000000000000E+000 0.375000000000000E+000 0.000000000000000E+000
 0.500000000000000E+000 0.404784409423024E+000 0.000000000000000E+000
 0.590394028376448E+000 0.312500000000000E+000 0.000000000000000E+000
 0.467392923590959E+000 0.261422480241605E+000 0.000000000000000E+000
 0.508234229043035E+000 0.327522431406248E+000 0.000000000000000E+000
 0.625000000000000E+000 0.000000000000000E+000 0.000000000000000E+000
 0.537311919648379E+000 0.110523699730938E+000 0.000000000000000E+000
 0.750000000000000E+000 0.250000000000000E+000 0.000000000000000E+000
 0.593146640296986E+000 0.172723366619635E+000 0.000000000000000E+000
 0.623771215502605E+000 0.890722450407200E-001 0.000000000000000E+000
 0.687500000000000E+000 0.454068088573020E-001 0.000000000000000E+000
 0.793069391389776E+000 0.125000000000000E+000 0.000000000000000E+000
 0.695513657869308E+000 0.162768437982326E+000 0.000000000000000E+000
 0.687500000000000E+000 0.250000000000000E+000 0.000000000000000E+000
 0.875000000000000E+000 0.500000000000000E+000 0.000000000000000E+000
 0.727921748554044E+000 0.101601148842529E+000 0.000000000000000E+000
 0.759582972952604E+000 0.183381972603444E+000 0.000000000000000E+000
 0.875000000000000E+000 0.375000000000000E+000 0.000000000000000E+000
 0.718750000000000E+000 0.343750000000000E+000 0.000000000000000E+000
 0.697916666666667E+000 0.437500000000000E+000 0.000000000000000E+000
 0.750000000000000E+000 0.572048611111111E+000 0.000000000000000E+000
 0.787123226950355E+000 0.408133865248227E+000 0.000000000000000E+000
 0.804687500000000E+000 0.320312500000000E+000 0.000000000000000E+000
 0.700214460784314E+000 0.513965482026144E+000 0.000000000000000E+000
 0.783021635712153E+000 0.493366127722916E+000 0.000000000000000E+000
 0.625000000000000E+000 0.625000000000000E+000 0.000000000000000E+000
 0.848380638879200E+000 0.437500000000000E+000 0.000000000000000E+000
 0.562500000000000E+000 0.404604515401992E-001 0.000000000000000E+000
 0.875000000000000E+000 0.625000000000000E+000 0.000000000000000E+000
 0.750000000000000E+000 0.750000000000000E+000 0.000000000000000E+000
 0.697046765904942E+000 0.621060933265583E+000 0.000000000000000E+000
 0.200520833333333E+000 0.494791666666667E+000 0.000000000000000E+000
 0.429642360217793E+000 0.800955091165693E+000 0.000000000000000E+000
 0.453073336954457E+000 0.687500000000000E+000 0.000000000000000E+000
 0.548183885155829E+000 0.693587592964698E+000 0.000000000000000E+000
 0.750000000000000E+000 0.100000000000000E+001 0.000000000000000E+000
 0.573843760532799E+000 0.437500000000000E+000 0.000000000000000E+000
 0.500000000000000E+000 0.550126792242997E+000 0.000000000000000E+000
 0.511972906944656E+000 0.477455600833011E+000 0.000000000000000E+000
 0.437507615834863E+000 0.452402202857321E+000 0.000000000000000E+000
 0.546458141439317E+000 0.614345103225503E+000 0.000000000000000E+000
 0.571440414895569E+000 0.547357897962524E+000 0.000000000000000E+000
 0.450991397292447E+000 0.610087136082382E+000 0.000000000000000E+000
 0.875000000000000E+000 0.000000000000000E+000 0.000000000000000E+000
 0.100000000000000E+001 0.250000000000000E+000 0.000000000000000E+000
 0.100000000000000E+001 0.375000000000000E+000 0.000000000000000E+000
 0.687500000000000E+000 0.700324699898860E+000 0.000000000000000E+000
 0.812500000000000E+000 0.687500000000000E+000 0.000000000000000E+000
 0.804621866531165E+000 0.617121866531165E+000 0.000000000000000E+000
 0.825181931429427E+000 0.549770415540467E+000 0.000000000000000E+000
 0.100000000000000E+001 0.625000000000000E+000 0.000000000000000E+000
 0.100000000000000E+001 0.750000000000000E+000 0.000000000000000E+000
[...]
CELL_DATA         1212
SCALARS tdens double 1
LOOKUP_TABLE default
 0.146467933124338E-003
 0.678634245443101E-004
 0.859294599738303E-004
 0.855489167875269E-004
 0.562073251051683E-003
 0.999323019587635E-003
 0.509941489928072E-003
 0.594881572535029E-003
 0.310731788665851E+000
 0.834875997596367E-001
 0.160072696385377E+000
 0.301518866945980E+000
 0.519609101726566E-004
 0.498511678840994E-004
 0.399027205965176E-004
 0.437930138151779E-004
 0.678628165827921E-004
 0.146818202337722E-003
 0.861100939993381E-004
 0.857789465237624E-004
 0.784576584093479E-004
 0.118261855108516E-003
 0.117228203183492E-003
 0.100342785895219E-003
 0.208734856253561E-003
 0.143356192614819E-003
 0.155602893392794E-003
 0.166573723588187E-003
 0.405636148166243E-002
 0.198327349417213E-002
 0.987568174150579E-003
 0.200545419879130E-002
 0.408950063855100E-001
 0.349800113331356E+000
 0.490969151992472E-001
 0.558580965519587E-001
 0.345549675216682E-004
 0.307665647120921E-004
 0.332627946647889E-004
 0.323746639765020E-004
 0.109799520946636E-002
 0.614845811767807E-003
 0.947323513040338E-003
 0.912530569497109E-003
 0.103735169761585E-003
 0.124622708586460E-003
 0.141002334060489E-003
 0.121710490061995E-003
 0.659709714264326E-003
 0.669197229519751E-003
 0.161698302243887E-003
 0.377335674734916E-003
 0.647288268189916E+000
 0.323453142994212E+000
 0.330975571637534E+000
 0.344710449399945E+000
 0.299839178692400E-003
 0.288412609427736E-003
 0.321823080013891E-003
 0.301148645094595E-003
 0.298237753676542E+000
 0.245557955789519E+000
 0.843159142446269E+000
 0.232149830786031E+000
 0.442060266646658E-004
 0.354324489704691E-004
 0.365598928691322E-004
 0.380089093700287E-004
 0.476653609891402E-004
 0.524371440529119E-004
 0.583751831813218E-004
 0.530546660525015E-004
 0.493722724137049E-004
 0.528093805395634E-004
 0.352519146739103E-004
 0.409090612336871E-004
 0.665590432544108E+000
 0.584564005304633E+000
 0.183568743764865E+000
 0.766267107811459E+000
 0.103447652154340E-002
 0.307500801577844E-003
 0.967258680176679E-003
 0.627157622519580E-003
 0.376900523377415E-004
 0.333330596512642E-004
 0.307866497053563E-004
 0.324081234406097E-004
 0.223910865903177E-001
 0.116311768813798E+000
 0.308605219772495E-001
 0.319971538612431E-001
 0.717054163294514E-004
 0.617618678069832E-004
 0.648821098695021E-004
 0.669302533558518E-004
 0.437958314021950E-004
 0.354643829440725E-004
 0.366047383162144E-004
 0.379881558002674E-004
 0.179916663556037E-003
 0.215376530107961E-003
 0.345266141769742E-003
 0.229145851033122E-003
 0.662919298962399E-004
 0.588950696504480E-004
 0.738807599827555E-004
 0.648849122165437E-004
 0.254819184190510E-001
 0.100822275510025E+000
 0.889616951648350E-001
 0.760709299312574E-001
 0.204341169677356E-003
 0.634507406743296E-004
 0.737934072552291E-004
 0.871758772862178E-004
 0.923135027196877E-003
 0.443903220308561E-002
 0.171775968091591E-002
 0.143177830266353E-002
 0.133523045180972E-003
 0.793509605505867E-004
 0.936247210545731E-004
 0.989411962828282E-004
 0.131107946203536E-003
 0.633757254751563E-004
 0.614302542718220E-004
 0.745846624316468E-004
 0.626462811147189E-002
 0.547667786216389E-001
 0.583708125308568E-002
 0.292785686597577E-001
 0.470064353214401E-003
 0.278217147065170E-003
 0.654060652389602E-003
 0.463291437514606E-003
 0.659963992481276E-003
 0.127088184663594E-002
 0.624698256269035E-003
 0.719563242834301E-003
 0.699461922665128E-004
 0.841127271356789E-004
 0.109786551859809E-003
 0.870593273189488E-004
 0.501637861643118E-004
 0.349727585930585E-004
 0.435800724326353E-004
 0.412829875776960E-004
 0.189757482581731E-003
 0.111353617881113E-003
 0.314274521020702E-003
 0.173177504859669E-003
 0.101422430419340E-003
 0.149400211654656E-003
 0.137006911312288E-003
 0.126180840302702E-003
 0.346546574224803E-004
 0.308031656995193E-004
 0.334321601505988E-004
 0.324641323834619E-004
 0.443733266806944E-004
 0.366163007526616E-004
 0.355366908249514E-004
 0.381116449643421E-004
 0.476437258338061E-004
 0.496829573129961E-004
 0.353277401209837E-004
 0.402793595958816E-004
 0.303386926573518E+000
 0.118633486698420E+000
 0.968700858759837E-001
 0.312342752815749E+000
 0.417245339477143E+000
 0.339780614076608E+000
 0.963327282846750E+000
 0.401708411588094E+000
 0.176875802414274E+000
 0.578312784833658E-001
 0.123020249218712E+000
 0.382926816903984E-001
 0.322089446635301E-003
 0.358871864552170E-003
 0.409250481581817E-003
 0.360056392903301E-003
 0.315882775731565E-003
 0.111032229906263E-003
 0.197417587722794E-003
 0.176031721317034E-003
 0.902475210021181E-004
 0.794274436503400E-004
 0.136518679476884E-003
 0.978089205416226E-004
 0.649028053996541E-004
 0.616703232319742E-004
 0.716119099319249E-004
 0.668637848514476E-004
 0.262321783305833E-003
 0.380575460986579E-003
 0.213685974261732E-003
 0.268782597778609E-003
 0.737105480931171E-004
 0.587865756000530E-004
 0.661436450664568E-004
 0.647512663932661E-004
 0.145229681637201E-003
 0.204663555689485E-003
 0.167601439005218E-003
 0.171580624609787E-003
 0.506227752540904E-004
 0.583484535975190E-004
 0.715023688058260E-004
 0.603405448712197E-004
 0.424521382939577E-004
 0.471019923651745E-004
 0.344033627136326E-004
 0.395627869227683E-004
 0.725661369274019E-004
 0.108076966311696E-003
 0.866709600779804E-004
 0.872604099338333E-004
 0.110722351469813E-003
 0.155033250628399E-003
 0.164196109222770E-003
 0.140039327176844E-003
 0.294799024499848E-003
 0.357334936961104E-003
 0.334374700950948E-003
 0.329457336228809E-003
 0.319569146067943E-003
 0.541613791244357E-003
 0.764147492967970E-003
 0.523702253669352E-003
 0.815864677159602E-002
 0.259584425017250E-002
 0.241397298497469E-002
 0.268155053791826E-002
 0.358138154207010E-002
 0.748433539432114E-002
 0.911521451469330E-002
 0.740307180838267E-002
 0.191890539550812E-002
 0.399196771803283E-002
 0.116528182932623E-002
 0.203208644485934E-002
 0.651935576822082E-004
 0.531635247570757E-004
 0.751024031991972E-004
 0.625594838187811E-004
 0.842546257058988E-002
 0.468887278835953E-002
 0.241312796922162E-002
 0.430896566538311E-002
 0.125055904513107E-002
 0.414333422999535E-002
 0.245277865249922E-002
 0.232216329765013E-002
 0.160554635998800E-003
 0.212304922263065E-003
 0.212652101423727E-003
 0.192047363087602E-003
 0.496971121088688E-003
 0.321137499672001E-003
 0.561616602405750E-003
 0.460266844502170E-003
 0.247281912114265E-003
 0.274871959675381E-003
 0.297272897479563E-003
 0.265838078569020E-003
 0.390406704607915E-001
 0.526210515186165E-001
 0.166660402437588E+000
 0.355854840204095E-001
 0.333212365016626E-002
 0.886650147455839E-003
 0.213618222960018E-002
 0.235880510949939E-002
 0.895215321861583E-003
 0.177668733849283E-002
 0.780085511116576E-003
 0.967746006852071E-003
 0.110085007640678E-002
 0.114865906941562E-002
 0.551546130437439E-003
 0.100298661729375E-002
 0.194774659500315E-003
 0.210852876118031E-003
 0.158439920639311E-003
 0.187267781090452E-003
 0.533684726652313E-003
 0.116556121676520E-002
 0.783057183094278E-003
 0.744986371540656E-003
 0.252041440817081E-002
 0.741860128598829E-002
 0.806876953657548E-002
 0.737250841876013E-002
 0.365931065391290E-003
 0.531132991772534E-003
 0.314124265062401E-003
 0.375159374389533E-003
 0.471876017580342E-004
 0.425449172352262E-004
 0.344337573547999E-004
 0.396242990015613E-004
 0.235710942265311E-003
 0.294203377758433E-003
 0.253073062589806E-003
 0.257470977855142E-003
 0.434428292368963E-003
 0.569431262384625E-003
 0.390759408265533E-003
 0.445938705306448E-003
 0.251717122757727E-003
 0.277245429728955E-003
 0.272666763185790E-003
 0.269121970912191E-003
 0.286321123186464E-003
 0.338930693258167E-003
 0.289111119196446E-003
 0.299050552301497E-003
 0.417214516003896E-004
 0.543105415725331E-004
 0.511036506591228E-004
 0.476651457638907E-004
 0.509476564484956E-004
 0.399274577019357E-004
 0.496180208815182E-004
 0.435666792976040E-004
 0.199836767090869E-003
 0.736520117239729E-004
 0.627426682105284E-004
 0.856250048605806E-004
 0.932919997856741E-003
 0.845258873506751E-003
 0.279184964090316E-003
 0.568102830288179E-003
 0.342243665751516E-003
 0.260943054775225E-003
 0.191644464194738E-003
 0.257598274116229E-003
 0.903088369272438E-004
 0.132392672945524E-003
 0.793000581793154E-004
 0.970772092304884E-004
 0.299632967930604E+000
 0.215016825079841E+000
 0.204566434702857E+000
 0.270593495817286E+000
 0.154780666248991E-003
 0.212361833228700E-003
 0.180797392717423E-003
 0.173876736933482E-003
 0.502822723453261E-004
 0.686771797853608E-004
 0.581335335813894E-004
 0.591717434642968E-004
 0.127160579819112E-003
 0.879422411271875E-004
 0.779345176894980E-004
 0.951372043315312E-004
 0.541092266875633E-004
 0.415294086343679E-004
 0.510240048017223E-004
 0.474336278230686E-004
 0.132197930897083E-003
 0.613418963632790E-004
 0.636070390223359E-004
 0.748124868719503E-004
 0.149239187201439E+000
 0.890684838554941E-001
 0.128390703927731E+000
 0.131448496788646E+000
 0.582189698187346E-002
 0.559129145964969E-001
 0.582758854739079E-002
 0.356501246903842E-001
 0.264653434111543E-002
 0.731770300892566E-002
 0.691460781450593E-002
 0.640539607374797E-002
 0.489793647610551E-003
 0.321565198785986E-003
 0.461258823102310E-003
 0.421348430922860E-003
 0.170488225960739E-002
 0.817905076780537E-003
 0.305980262978858E-002
 0.191509305075876E-002
 0.728075536107982E-003
 0.161274160839295E-002
 0.223862841422934E-002
 0.149162435737406E-002
 0.287532160216135E-003
 0.314942684065307E-003
 0.250008632793622E-003
 0.288232665149015E-003
 0.715474218274366E-003
 0.674618338003143E-003
 0.134437841077025E-002
 0.784173316585463E-003
 0.322969285249571E-003
 0.306058282343587E-003
 0.449597328811735E-003
 0.340895222965449E-003
 0.339278901494902E-003
 0.458004741952701E-003
 0.367755073928139E-003
 0.379527008058133E-003
 0.262585077999559E-003
 0.200989105418566E-003
 0.241691677092656E-003
 0.235674356789407E-003
 0.206994444242251E-003
 0.258661641339318E-003
 0.231487655126259E-003
 0.224381984060433E-003
 0.468193075755288E-002
 0.857650181143191E-002
 0.216287067342788E-002
 0.416058482208990E-002
 0.865002028465821E-003
 0.152604227649897E-002
 0.419538335820982E-002
 0.130060343343835E-002
 0.418886933266192E-002
 0.103215175026666E-002
 0.191130745969502E-002
 0.187052478509017E-002
 0.351880463660452E-003
 0.490261979040301E-003
 0.487817852947804E-003
 0.452190040617307E-003
 0.244556439610528E-003
 0.206660683837632E-003
 0.393162834085287E-003
 0.263112944070956E-003
 0.594781929681168E+000
 0.418223261974386E+000
 0.698606906525598E-001
 0.756209336661431E+000
 0.224060829811506E-001
 0.263573656780195E-001
 0.119417410978644E+000
 0.341079711335963E-001
 0.226141777877955E-003
 0.282652197201238E-003
 0.232220433736285E-003
 0.243811900114937E-003
 0.319718154540717E+000
 0.373643226268447E+000
 0.642392308954065E+000
 0.396857937753570E+000
 0.420647862639177E-001
 0.105309785056627E+000
 0.931126411728656E-001
 0.513001457849546E-001
 0.369590623185057E-001
 0.289944271897443E+000
 0.143176149352202E+000
 0.235010940609366E+000
 0.225724517923726E+000
 0.161502242294718E+000
 0.355135123623797E+000
 0.197890660229900E+000
 0.428927292686259E-003
 0.749709282328296E-003
 0.515109212915079E-003
 0.528848163211596E-003
 0.307920061911551E-004
 0.346588099566198E-004
 0.334064623649803E-004
 0.324496818614087E-004
 0.381481525764156E-004
 0.307793187086383E-004
 0.332891626080965E-004
 0.324004919416371E-004
 0.147260343237545E+000
 0.263961259972314E+000
 0.443291098467627E-001
 0.230363334664637E+000
 0.718063825972289E-004
 0.527818766908079E-004
 0.646354378224158E-004
 0.613276668534319E-004
 0.228654899655042E+000
 0.319322414096798E+000
 0.464542500549165E+000
 0.516049588566798E+000
 0.430867037157317E-001
 0.112762024877087E+000
 0.963582718840430E-001
 0.567292936843613E-001
 0.620417968672061E-002
 0.591149568623850E-002
 0.524211402014796E-001
 0.293188949830743E-001
 0.558676934725680E-002
 0.474153237347221E-001
 0.542355530243659E-002
 0.326903382016593E-001
 0.270530617191344E+000
 0.268421601675134E+000
 0.260799750412822E+000
 0.260093571299627E+000
 0.242702490521188E+000
 0.277272160875478E+000
 0.368224790798576E+000
 0.246340954521287E+000
 0.441871859426952E+000
 0.188681582354859E+000
 0.126184620567428E+000
 0.282270298888124E+000
 0.177756735024957E+000
 0.292764648969120E+000
 0.598108462702174E+000
 0.214847718367858E+000
 0.199315535803226E+000
 0.967435218981264E-001
 0.337285207725078E+000
 0.171902110571731E+000
 0.113188526891421E+000
 0.169837899076905E+000
 0.183101586473704E+000
 0.147415853302180E+000
 0.185136658648578E+000
 0.182366339762406E+000
 0.245889936787048E+000
 0.228698704987734E+000
 0.321761116971289E+000
 0.779177851443503E+000
 0.404204326365507E+000
 0.487039209898376E+000
 0.821027874517327E+000
 0.336653739808404E+000
 0.111405059100937E+001
 0.909338952410354E+000
 0.461179673338073E+000
 0.108497241339803E+000
 0.272791965730474E+000
 0.323340204857587E+000
 0.317478499078124E-001
 0.249716809331815E+000
 0.562443365452730E-001
 0.330600327557480E-001
 0.181064393615608E+000
 0.112627325581731E+000
 0.612723444866953E+000
 0.172400763662370E+000
 0.338030898026736E-002
 0.234116521295727E-002
 0.849929103326474E-002
 0.299548756723109E-002
 0.523325004382508E-004
 0.475476644337739E-004
 0.582529511774749E-004
 0.529367388096453E-004
 0.349386747357007E-004
 0.498699500573076E-004
 0.434915936333658E-004
 0.412052908052782E-004
 0.204083939592058E+000
 0.301977049951007E+000
 0.257256654289944E+000
 0.230031654365479E+000
 0.427555493823960E+000
 0.353260144212750E+000
 0.264688727397480E+000
 0.305682074189707E+000
 0.777777309441470E-001
 0.440362473185047E+000
 0.511046271054129E-001
 0.529570797769733E-001
 0.547249333032621E+000
 0.838110452193040E+000
 0.398109619900010E+000
 0.636278185134378E+000
 0.211623836707254E-001
 0.241828925858164E-001
 0.939506953639693E-001
 0.279942190618798E-001
 0.653727903373091E+000
 0.119781830210208E+000
 0.118641639801658E+000
 0.131807580919263E+000
 0.888490915041039E+000
 0.249283640143686E+000
 0.131745624728641E+001
 0.135413724247358E+001
 0.611990982997975E-001
 0.729464946304412E-002
 0.536683413212260E-002
 0.686011274185177E-002
 0.735485079592676E+000
 0.137379134751158E+000
 0.236699518519131E+000
 0.208912964685556E+000
 0.934784709113422E-002
 0.692817774485171E-002
 0.269013639816273E-002
 0.725531557315418E-002
 0.169514339487860E-002
 0.649451231305581E-002
 0.214269846445239E-002
 0.221198888085796E-002
 0.136972094818332E+000
 0.136559287622606E+000
 0.387813994163700E-001
 0.154674932212028E+000
 0.354515104978194E+000
 0.101971879608161E+001
 0.749258208813011E+000
 0.855831970049218E+000
 0.970603753721140E-001
 0.700005029882550E-001
 0.652841342783849E+000
 0.699882403670934E-001
 0.345401812021321E+000
 0.283388058471945E+000
 0.511179636645072E+000
 0.360184756195374E+000
 0.753006632616349E+000
 0.327940886319879E+000
 0.383386924831170E+000
 0.378619778857294E+000
 0.126071192751126E+000
 0.724772771398950E+000
 0.251213136315963E+000
 0.236720001437586E+000
 0.435902658822630E+000
 0.910070804373830E+000
 0.140360628442798E+001
 0.113630031529298E+001
 0.162276845429079E+000
 0.395903440869181E-001
 0.378217076011609E-001
 0.358901618213640E-001
 0.532886357289979E-001
 0.405467233154115E-001
 0.174653299561675E+000
 0.376256038124540E-001
 0.138848207438126E+000
 0.140039198623813E+000
 0.360170896238228E-001
 0.152908193711710E+000
 0.348940021987794E+000
 0.431676550164270E+000
 0.155286670639180E+001
 0.324224537881482E+000
 0.107787218416614E-003
 0.906827435512854E-004
 0.156282149900914E-003
 0.112635800653374E-003
 0.440646718495636E-003
 0.665734304061989E-003
 0.791417307441854E-003
 0.616865520038097E-003
 0.296288142417801E-003
 0.394144514104037E-003
 0.369428630628851E-003
 0.352176139820088E-003
 0.374374287321611E-003
 0.290086339131073E-003
 0.303266177018023E-003
 0.313594961011356E-003
 0.463162617629892E-002
 0.400369775861812E-002
 0.124272241243343E-002
 0.412846613198268E-002
 0.114704692895360E-002
 0.434050719765048E-002
 0.143131437006079E-002
 0.154476381923506E-002
 0.350274075346867E-003
 0.406591236944586E-003
 0.313016735582608E-003
 0.353832932258146E-003
 0.172791518553130E-002
 0.573130090214015E-002
 0.680131621516583E-002
 0.551100820960590E-002
 0.133929640098482E-003
 0.122027666552516E-003
 0.188085199392125E-003
 0.144110180827541E-003
 0.317285305955650E+000
 0.170184807490247E+000
 0.145843309399779E+000
 0.250062403990492E+000
 0.319010774158649E-003
 0.512451695075528E-003
 0.365779225192261E-003
 0.383260583108304E-003
 0.384617202325840E-004
 0.604262720397531E-004
 0.611177737157639E-004
 0.494949358345812E-004
 0.685016728690491E-002
 0.132754262371899E-002
 0.389905801348914E-002
 0.257622578412691E-002
 0.260416299473858E-003
 0.302118486908273E-003
 0.228461738046381E-003
 0.263032230531336E-003
 0.564580850166856E-003
 0.564424176653541E-003
 0.338354125834781E-003
 0.501176999725345E-003
 0.121369232136036E-002
 0.465397136151615E-002
 0.109483111646246E-002
 0.128137047501217E-002
 0.640962125208303E-002
 0.593525270481533E-001
 0.708583037902350E-002
 0.343324880564901E-001
 0.299353454492942E+000
 0.805250290713189E+000
 0.544065458349893E+000
 0.665290430821307E+000
 0.369802907987562E-001
 0.173106804528347E+000
 0.275022000311796E+000
 0.270532813903642E+000
 0.154122325149007E-003
 0.209790886088092E-003
 0.195106182673307E-003
 0.176907558474565E-003
 0.488757306875286E-003
 0.295051066298329E-003
 0.271904092000400E-003
 0.324317495018973E-003
 0.515843596555641E-003
 0.267284223124423E-003
 0.263855341221861E-003
 0.317830150936929E-003
 0.550287021134336E-002
 0.143649002268459E-002
 0.553059572837450E-002
 0.497592920031340E-002
 0.218072676333637E+000
 0.251453175332092E+000
 0.249172049777442E+000
 0.267513468692770E+000
 0.541553733504376E+000
 0.467850359490740E-001
 0.344332855024578E+000
 0.535252654514325E+000
 0.290696449699156E+000
 0.433194385219424E+000
 0.217972444074352E+000
 0.243547827934623E+000
 0.307363594552360E-004
 0.357059846650130E-004
 0.330912228976706E-004
 0.322539480456151E-004
 0.626283003370007E-004
 0.794508918981067E-004
 0.211639028110218E-003
 0.863687317720474E-004
 0.229671351351188E+000
 0.257871325095250E+000
 0.169882206369396E+000
 0.153832431242541E+000
 0.177560204358071E+000
 0.137731547133695E+000
 0.165560869146114E+000
 0.139365935208718E+000
 0.664568662516379E-001
 0.108266339474188E+000
 0.370772536614838E-001
 0.553551457146605E-001
 0.100835543320585E-001
 0.186660637472077E-001
 0.608451062705249E-001
 0.642927258950926E-001
 0.172027581722108E+000
 0.135161901495229E+000
 0.193355947019358E+000
 0.165927474104407E+000
 0.256131404538524E-001
 0.147829583256619E+000
 0.271031097064382E-001
 0.402299366182551E-001
 0.128560357068344E+000
 0.115028872390662E+000
 0.406692186362192E-001
 0.593367032089970E-001
 0.102648290940877E+000
 0.184720491588926E+000
 0.116935672059465E+000
 0.198054113658190E+000
 0.205750285527433E+000
 0.250299841034024E+000
 0.440164549821216E+000
 0.323550141052513E+000
 0.705526325710452E-001
 0.104208995566146E+000
 0.117536799491685E+000
 0.799126709215965E-001
 0.240242991918219E-001
 0.952944759195731E-001
 0.634586599154996E-001
 0.455444941958760E-001
 0.246828519740961E-003
 0.488207642564788E-003
 0.149260966780895E-003
 0.269339627803272E-003
 0.596359968261313E-001
 0.494729164406321E-001
 0.815577059941578E-002
 0.636463797957119E-001
 0.287900522010888E-002
 0.262332356706329E-002
 0.186177947451237E-001
 0.921270119121696E-002
 0.623478438968180E-001
 0.228230356694952E-001
 0.120109833044866E-001
 0.581745897257654E-001
 0.278453585931236E-003
 0.253031298338109E-003
 0.279144693470832E-003
 0.271127164403810E-003
 0.297004126733663E-003
 0.282546859190015E-003
 0.248142333626542E-003
 0.270470479151533E-003
 0.663328650935320E-001
 0.777555036616691E-001