# vtk DataFile Version 3.0
Unstructured Grid
ASCII
DATASET UNSTRUCTURED_GRID
FIELD FieldData 1
TIME 1 1 float
  0.375000E+01
POINTS          640 double
 0.000000000000000E+000 0.000000000000000E+000 0.000000000000000E+000
 0.100000000000000E+001 0.000000000000000E+000 0.000000000000000E+000
 0.100000000000000E+001 0.100000000000000E+001 0.000000000000000E+000
 0.000000000000000E+000 0.100000000000000E+001 0.000000000000000E+000
 0.125000000000000E+000 0.250000000000000E+000 0.000000000000000E+000
 0.375000000000000E+000 0.250000000000000E+000 0.000000000000000E+000
 0.375000000000000E+000 0.750000000000000E+000 0.000000000000000E+000
 0.125000000000000E+000 0.750000000000000E+000 0.000000000000000E+000
 0.625000000000000E+000 0.250000000000000E+000 0.000000000000000E+000
 0.875000000000000E+000 0.250000000000000E+000 0.000000000000000E+000
 0.875000000000000E+000 0.750000000000000E+000 0.000000000000000E+000
 0.625000000000000E+000 0.750000000000000E+000 0.000000000000000E+000
 0.100000000000000E+001 0.500000000000000E+000 0.000000000000000E+000
 0.000000000000000E+000 0.500000000000000E+000 0.000000000000000E+000
 0.500000000000000E+000 0.000000000000000E+000 0.000000000000000E+000
 0.125000000000000E+000 0.500000000000000E+000 0.000000000000000E+000
 0.000000000000000E+000 0.750000000000000E+000 0.000000000000000E+000
 0.000000000000000E+000 0.250000000000000E+000 0.000000000000000E+000
 0.000000000000000E+000 0.875000000000000E+000 0.000000000000000E+000
 0.000000000000000E+000 0.125000000000000E+000 0.000000000000000E+000
 0.625000000000000E-001 0.812500000000000E+000 0.000000000000000E+000
 0.125000000000000E+000 0.375000000000000E+000 0.000000000000000E+000
 0.125000000000000E+000 0.625000000000000E+000 0.000000000000000E+000
 0.500000000000000E+000 0.100000000000000E+001 0.000000000000000E+000
 0.250000000000000E+000 0.100000000000000E+001 0.000000000000000E+000
 0.125000000000000E+000 0.100000000000000E+001 0.000000000000000E+000
 0.729166666666667E-001 0.885416666666667E+000 0.000000000000000E+000
 0.000000000000000E+000 0.625000000000000E+000 0.000000000000000E+000
 0.625000000000000E-001 0.562500000000000E+000 0.000000000000000E+000
 0.375000000000000E+000 0.500000000000000E+000 0.000000000000000E+000
 0.375000000000000E+000 0.100000000000000E+001 0.000000000000000E+000
 0.250000000000000E+000 0.000000000000000E+000 0.000000000000000E+000
 0.625000000000000E-001 0.187500000000000E+000 0.000000000000000E+000
 0.143518518518519E+000 0.775462962962963E-001 0.000000000000000E+000
 0.156250000000000E+000 0.156250000000000E+000 0.000000000000000E+000
 0.729166666666667E-001 0.114583333333333E+000 0.000000000000000E+000
 0.125000000000000E+000 0.000000000000000E+000 0.000000000000000E+000
 0.250000000000000E+000 0.250000000000000E+000 0.000000000000000E+000
 0.375000000000000E+000 0.000000000000000E+000 0.000000000000000E+000
 0.187500000000000E+000 0.218750000000000E+000 0.000000000000000E+000
 0.312500000000000E+000 0.762453007518797E-001 0.000000000000000E+000
 0.270259392278489E+000 0.159169301283415E+000 0.000000000000000E+000
 0.365310977506407E+000 0.155367112827996E+000 0.000000000000000E+000
 0.312500000000000E+000 0.216265619131990E+000 0.000000000000000E+000
 0.500000000000000E+000 0.189389379011873E+000 0.000000000000000E+000
 0.426456487258648E+000 0.196919158251449E+000 0.000000000000000E+000
 0.451620395371675E+000 0.941243892751461E-001 0.000000000000000E+000
 0.381804756165356E+000 0.871724813114945E-001 0.000000000000000E+000
 0.437500000000000E+000 0.273708879364394E-001 0.000000000000000E+000
 0.000000000000000E+000 0.375000000000000E+000 0.000000000000000E+000
 0.625000000000000E-001 0.312500000000000E+000 0.000000000000000E+000
 0.250000000000000E+000 0.750000000000000E+000 0.000000000000000E+000
 0.158482142857143E+000 0.851934523809524E+000 0.000000000000000E+000
 0.210861885404568E+000 0.921875000000000E+000 0.000000000000000E+000
 0.136017278952732E+000 0.925863358051789E+000 0.000000000000000E+000
 0.625000000000000E-001 0.687500000000000E+000 0.000000000000000E+000
 0.250000000000000E+000 0.437500000000000E+000 0.000000000000000E+000
 0.247528011619582E+000 0.839830719156545E+000 0.000000000000000E+000
 0.312500000000000E+000 0.796669265575374E+000 0.000000000000000E+000
 0.419664368355990E+000 0.875000000000000E+000 0.000000000000000E+000
 0.313183356674252E+000 0.918387829019328E+000 0.000000000000000E+000
 0.312500000000000E+000 0.100000000000000E+001 0.000000000000000E+000
 0.380617553087688E+000 0.931527612480385E+000 0.000000000000000E+000
 0.187500000000000E+000 0.785936956899548E+000 0.000000000000000E+000
 0.350379273974835E+000 0.857317802397078E+000 0.000000000000000E+000
 0.228046514569416E+000 0.817347524546315E-001 0.000000000000000E+000
 0.187500000000000E+000 0.312500000000000E+000 0.000000000000000E+000
 0.625000000000000E-001 0.437500000000000E+000 0.000000000000000E+000
 0.197916666666667E+000 0.385416666666667E+000 0.000000000000000E+000
 0.375000000000000E+000 0.375000000000000E+000 0.000000000000000E+000
 0.750000000000000E+000 0.000000000000000E+000 0.000000000000000E+000
 0.625000000000000E-001 0.959280303030303E+000 0.000000000000000E+000
 0.234375000000000E+000 0.562500000000000E+000 0.000000000000000E+000
 0.187500000000000E+000 0.687500000000000E+000 0.000000000000000E+000
 0.193892045454545E+000 0.618607954545455E+000 0.000000000000000E+000
 0.375000000000000E+000 0.625000000000000E+000 0.000000000000000E+000
 0.283775504647110E+000 0.640801989544002E+000 0.000000000000000E+000
 0.281298714846257E+000 0.504888901855782E+000 0.000000000000000E+000
 0.331282779604339E+000 0.562500000000000E+000 0.000000000000000E+000
 0.338845441361880E+000 0.687500000000000E+000 0.000000000000000E+000
 0.500000000000000E+000 0.775815254846569E+000 0.000000000000000E+000
 0.625000000000000E-001 0.407196969696970E-001 0.000000000000000E+000
 0.328125000000000E+000 0.437500000000000E+000 0.000000000000000E+000
 0.284143518518519E+000 0.340856481481482E+000 0.000000000000000E+000
 0.312500000000000E+000 0.278356481481482E+000 0.000000000000000E+000
 0.625000000000000E+000 0.500000000000000E+000 0.000000000000000E+000
 0.410581328448014E+000 0.312500000000000E+000 0.000000000000000E+000
 0.543730092976870E+000 0.258404709955172E+000 0.000000000000000E+000
 0.625000000000000E+000 0.375000000000000E+000 0.000000000000000E+000
 0.500000000000000E+000 0.404784409423024E+000 0.000000000000000E+000
 0.590394028376448E+000 0.312500000000000E+000 0.000000000000000E+000
 0.467392923590959E+000 0.261422480241605E+000 0.000000000000000E+000
 0.508234229043035E+000 0.327522431406248E+000 0.000000000000000E+000
 0.625000000000000E+000 0.000000000000000E+000 0.000000000000000E+000
 0.537311919648379E+000 0.110523699730938E+000 0.000000000000000E+000
 0.750000000000000E+000 0.250000000000000E+000 0.000000000000000E+000
 0.593146640296986E+000 0.172723366619635E+000 0.000000000000000E+000
 0.623771215502605E+000 0.890722450407200E-001 0.000000000000000E+000
 0.687500000000000E+000 0.454068088573020E-001 0.000000000000000E+000
 0.793069391389776E+000 0.125000000000000E+000 0.000000000000000E+000
 0.695513657869308E+000 0.162768437982326E+000 0.000000000000000E+000
 0.687500000000000E+000 0.250000000000000E+000 0.000000000000000E+000
 0.875000000000000E+000 0.500000000000000E+000 0.000000000000000E+000
 0.727921748554044E+000 0.101601148842529E+000 0.000000000000000E+000
 0.759582972952604E+000 0.183381972603444E+000 0.000000000000000E+000
 0.875000000000000E+000 0.375000000000000E+000 0.000000000000000E+000
 0.718750000000000E+000 0.343750000000000E+000 0.000000000000000E+000
 0.697916666666667E+000 0.437500000000000E+000 0.000000000000000E+000
 0.750000000000000E+000 0.572048611111111E+000 0.000000000000000E+000
 0.787123226950355E+000 0.408133865248227E+000 0.000000000000000E+000
 0.804687500000000E+000 0.320312500000000E+000 0.000000000000000E+000
 0.700214460784314E+000 0.513965482026144E+000 0.000000000000000E+000
 0.783021635712153E+000 0.493366127722916E+000 0.000000000000000E+000
 0.625000000000000E+000 0.625000000000000E+000 0.000000000000000E+000
 0.848380638879200E+000 0.437500000000000E+000 0.000000000000000E+000
 0.562500000000000E+000 0.404604515401992E-001 0.000000000000000E+000
 0.875000000000000E+000 0.625000000000000E+000 0.000000000000000E+000
 0.750000000000000E+000 0.750000000000000E+000 0.000000000000000E+000
 0.697046765904942E+000 0.621060933265583E+000 0.000000000000000E+000
 0.200520833333333E+000 0.494791666666667E+000 0.000000000000000E+000
 0.429642360217793E+000 0.800955091165693E+000 0.000000000000000E+000
 0.453073336954457E+000 0.687500000000000E+000 0.000000000000000E+000
 0.548183885155829E+000 0.693587592964698E+000 0.000000000000000E+000
 0.750000000000000E+000 0.100000000000000E+001 0.000000000000000E+000
 0.573843760532799E+000 0.437500000000000E+000 0.000000000000000E+000
 0.500000000000000E+000 0.550126792242997E+000 0.000000000000000E+000
 0.511972906944656E+000 0.477455600833011E+000 0.000000000000000E+000
 0.437507615834863E+000 0.452402202857321E+000 0.000000000000000E+000
 0.546458141439317E+000 0.614345103225503E+000 0.000000000000000E+000
 0.571440414895569E+000 0.547357897962524E+000 0.000000000000000E+000
 0.450991397292447E+000 0.610087136082382E+000 0.000000000000000E+000
 0.875000000000000E+000 0.000000000000000E+000 0.000000000000000E+000
 0.100000000000000E+001 0.250000000000000E+000 0.000000000000000E+000
 0.100000000000000E+001 0.375000000000000E+000 0.000000000000000E+000
 0.687500000000000E+000 0.700324699898860E+000 0.000000000000000E+000
 0.812500000000000E+000 0.687500000000000E+000 0.000000000000000E+000
 0.804621866531165E+000 0.617121866531165E+000 0.000000000000000E+000
 0.825181931429427E+000 0.549770415540467E+000 0.000000000000000E+000
 0.100000000000000E+001 0.625000000000000E+000 0.000000000000000E+000
 0.100000000000000E+001 0.750000000000000E+000 0.000000000000000E+000
[...]
CELL_DATA         1212
SCALARS tdens double 1
LOOKUP_TABLE default
 0.127750649546204E+001
 0.126673562539790E+001
 0.126779231160546E+001
 0.127043020757353E+001
 0.134686464257874E+001
 0.135814875859614E+001
 0.134476397154200E+001
 0.135141140471229E+001
 0.132993038119165E+001
 0.129097280852990E+001
 0.129740926431584E+001
 0.130206553407058E+001
 0.126366579293681E+001
 0.126397265436769E+001
 0.125604743463126E+001
 0.125870212249876E+001
 0.126673206764636E+001
 0.127746684745178E+001
 0.126776955492079E+001
 0.127042163082783E+001
 0.126380990990179E+001
 0.127767078074320E+001
 0.128094440222868E+001
 0.127388397942124E+001
 0.130307325334834E+001
 0.129062755780289E+001
 0.128771437080642E+001
 0.129366760582746E+001
 0.138402219922197E+001
 0.137073426345029E+001
 0.135161441822794E+001
 0.136580583003753E+001
 0.135440684766309E+001
 0.135411081599032E+001
 0.137002335348877E+001
 0.136098924762343E+001
 0.124668853252606E+001
 0.123602245048499E+001
 0.124376787095460E+001
 0.124112515926928E+001
 0.136431340440110E+001
 0.135055901129932E+001
 0.135844654044021E+001
 0.135646392403249E+001
 0.127034266891186E+001
 0.128243403035517E+001
 0.128250142074714E+001
 0.127955550388322E+001
 0.129946455997941E+001
 0.129194372533463E+001
 0.127569045038018E+001
 0.128709086913224E+001
 0.145472602281586E+001
 0.140942754878602E+001
 0.146132918171739E+001
 0.144300338510836E+001
 0.133387754041533E+001
 0.133407035080445E+001
 0.133664199409421E+001
 0.133489897201228E+001
 0.146053554385725E+001
 0.140839411093374E+001
 0.145514644319563E+001
 0.144338058340194E+001
 0.125805233592751E+001
 0.124824772300975E+001
 0.125039851572840E+001
 0.125356197670237E+001
 0.124488284098410E+001
 0.124924270101063E+001
 0.125146419244819E+001
 0.124900674921427E+001
 0.125917879196659E+001
 0.125238128149247E+001
 0.124885152426538E+001
 0.125474766064592E+001
 0.145137940500556E+001
 0.145791347858856E+001
 0.143795964177077E+001
 0.144722860146133E+001
 0.129527532386199E+001
 0.128685649527201E+001
 0.130280218005894E+001
 0.129610329354407E+001
 0.124844349327461E+001
 0.124425308821414E+001
 0.123614268529946E+001
 0.124153010959125E+001
 0.130907893695122E+001
 0.130442822167976E+001
 0.133642824920662E+001
 0.131218849558016E+001
 0.126344901221816E+001
 0.125769660361261E+001
 0.126465435404521E+001
 0.126224460006219E+001
 0.125810177968174E+001
 0.124835793239653E+001
 0.125048266855707E+001
 0.125364994583003E+001
 0.128478175918637E+001
 0.128359304026254E+001
 0.129891165989804E+001
 0.129061450426081E+001
 0.125652669836411E+001
 0.125456579020776E+001
 0.126214554475175E+001
 0.125686546362336E+001
 0.123840488826427E+001
 0.127635660587740E+001
 0.126318895686302E+001
 0.125698503463626E+001
 0.128240110613048E+001
 0.126920581477734E+001
 0.126987397065221E+001
 0.127351294586617E+001
 0.132079270811350E+001
 0.133948967153663E+001
 0.131808135194127E+001
 0.132755288540878E+001
 0.127209266577756E+001
 0.125946277821587E+001
 0.126383384193710E+001
 0.126587650779207E+001
 0.127714477836397E+001
 0.126777632535222E+001
 0.126672564108013E+001
 0.127039500129344E+001
 0.128662474686048E+001
 0.128345506321324E+001
 0.126933096545397E+001
 0.127885884906585E+001
 0.130640168549579E+001
 0.128985210540383E+001
 0.130461460183467E+001
 0.129742816473066E+001
 0.134847598713025E+001
 0.136065136385453E+001
 0.134901106302373E+001
 0.135449605342339E+001
 0.125954200800643E+001
 0.126343792652252E+001
 0.127374888600763E+001
 0.126460034711012E+001
 0.124735213419888E+001
 0.123601912266751E+001
 0.124253610928930E+001
 0.124099576625883E+001
 0.127964207549065E+001
 0.127165913464149E+001
 0.128688918752430E+001
 0.127706781273120E+001
 0.126818114487255E+001
 0.127723792314564E+001
 0.127862795890889E+001
 0.127302662698794E+001
 0.124676828139074E+001
 0.123606296901868E+001
 0.124386965250167E+001
 0.124120173369854E+001
 0.125811788924554E+001
 0.125049941236303E+001
 0.124837586907236E+001
 0.125366819691775E+001
 0.125240717135985E+001
 0.125921983252687E+001
 0.124887278121237E+001
 0.125478422260529E+001
 0.132818415458608E+001
 0.129641874055199E+001
 0.128864925774751E+001
 0.129936316486550E+001
 0.143522285788784E+001
 0.143876740771955E+001
 0.145414226922517E+001
 0.144300217696473E+001
 0.127557550526428E+001
 0.123879410254806E+001
 0.125899510533811E+001
 0.125678348735874E+001
 0.133533418112457E+001
 0.133869264540108E+001
 0.134132764892592E+001
 0.133862393914487E+001
 0.128719173668795E+001
 0.127182309126483E+001
 0.128049907240802E+001
 0.127735126761332E+001
 0.126570096924919E+001
 0.126059941959181E+001
 0.127265559878690E+001
 0.126644379542181E+001
 0.126465449992043E+001
 0.125768922799252E+001
 0.126344885882511E+001
 0.126224135583934E+001
 0.130826036726290E+001
 0.131101310215565E+001
 0.129624989915017E+001
 0.130469066327293E+001
 0.126212138838079E+001
 0.125455639590378E+001
 0.125651341216723E+001
 0.125685330178858E+001
 0.129176912211436E+001
 0.130386293006132E+001
 0.129156400547940E+001
 0.129489817280824E+001
 0.124671904465397E+001
 0.125225564814210E+001
 0.125725902799704E+001
 0.125316102621638E+001
 0.124172101947987E+001
 0.124594182449550E+001
 0.123549714998921E+001
 0.123960585596090E+001
 0.126148494769249E+001
 0.127833678216978E+001
 0.126597715190453E+001
 0.126694482974691E+001
 0.127083463730160E+001
 0.128299588423528E+001
 0.127939265834201E+001
 0.127580299840936E+001
 0.133194704350748E+001
 0.133713316261058E+001
 0.133183754899758E+001
 0.133343369982482E+001
 0.129244709358440E+001
 0.131207846348681E+001
 0.130758407204203E+001
 0.130064417736087E+001
 0.139022006709965E+001
 0.137469821431350E+001
 0.137377216762180E+001
 0.138173805839490E+001
 0.136467530249811E+001
 0.138870141321183E+001
 0.136334285899951E+001
 0.137695578104771E+001
 0.137092884426917E+001
 0.138552692295612E+001
 0.135677004075267E+001
 0.136849899025221E+001
 0.125449511474372E+001
 0.124839138576231E+001
 0.125888129956256E+001
 0.125254269638940E+001
 0.133373119020051E+001
 0.130634876311871E+001
 0.131347929827472E+001
 0.132787570502126E+001
 0.135226084705147E+001
 0.138211479400953E+001
 0.136039609735804E+001
 0.136652503325676E+001
 0.129812470960499E+001
 0.131397821297813E+001
 0.130858615911143E+001
 0.130682667126611E+001
 0.132154237435149E+001
 0.131710338112792E+001
 0.133445130929931E+001
 0.132356993004190E+001
 0.132422797298935E+001
 0.132956480359442E+001
 0.132790695310918E+001
 0.132619189232565E+001
 0.140594099651220E+001
 0.141010059590351E+001
 0.142461536977955E+001
 0.141591891466176E+001
 0.135118006141293E+001
 0.133054060485247E+001
 0.135300140396214E+001
 0.134151096510193E+001
 0.134206907830841E+001
 0.134861761604637E+001
 0.132979106442456E+001
 0.133972588810377E+001
 0.136518007111323E+001
 0.136526756033005E+001
 0.134903960534351E+001
 0.135688992882444E+001
 0.130711731468336E+001
 0.131382421485585E+001
 0.129808359714443E+001
 0.130640409383708E+001
 0.134401775628253E+001
 0.135901259023500E+001
 0.134680968529472E+001
 0.135115136686271E+001
 0.138052531074117E+001
 0.139663124689567E+001
 0.139713347092940E+001
 0.138885624985438E+001
 0.132805596982635E+001
 0.133436330700225E+001
 0.131906503848234E+001
 0.132758271171145E+001
 0.124594848323261E+001
 0.124173277028139E+001
 0.123549980704449E+001
 0.123961094097102E+001
 0.131936520094679E+001
 0.132423650977111E+001
 0.131526852452764E+001
 0.132005614574293E+001
 0.133958689353209E+001
 0.134080447802269E+001
 0.133377024567807E+001
 0.133765797944178E+001
 0.132655741325572E+001
 0.133267953479823E+001
 0.133050891384829E+001
 0.133032599018086E+001
 0.133369801782627E+001
 0.133594954571357E+001
 0.133224169998168E+001
 0.133455581950015E+001
 0.125753962063207E+001
 0.126463235732439E+001
 0.126341769553869E+001
 0.126219590111693E+001
 0.126366663199610E+001
 0.125603280714837E+001
 0.126396342090897E+001
 0.125868924966875E+001
 0.128234475802837E+001
 0.126988622318250E+001
 0.126919614553100E+001
 0.127350358912781E+001
 0.129460126666936E+001
 0.130133451433907E+001
 0.128592710330663E+001
 0.129487258391463E+001
 0.130614534485001E+001
 0.130732725136996E+001
 0.129200878811032E+001
 0.130031152747216E+001
 0.126564914206979E+001
 0.127215425892717E+001
 0.126053051154372E+001
 0.126601292456973E+001
 0.138578948619916E+001
 0.132838754950116E+001
 0.135530650894242E+001
 0.135560051054966E+001
 0.129473188387408E+001
 0.130592335431166E+001
 0.130340789276073E+001
 0.130179586429512E+001
 0.124645465205958E+001
 0.125592731748010E+001
 0.125193797025780E+001
 0.125241805604011E+001
 0.127076919895226E+001
 0.126207614382770E+001
 0.125878775115267E+001
 0.126498766730364E+001
 0.126463699348660E+001
 0.125755267640939E+001
 0.126342631320746E+001
 0.126220522043094E+001
 0.127716297439467E+001
 0.126672744437723E+001
 0.126778423777838E+001
 0.127039581826672E+001
 0.130099197284601E+001
 0.127414994409063E+001
 0.127802357797096E+001
 0.128397218203505E+001
 0.125637893150980E+001
 0.125634010805639E+001
 0.124604037934994E+001
 0.124921547649242E+001
 0.135969947325980E+001
 0.136224506233508E+001
 0.138835548764627E+001
 0.137302207579397E+001
 0.132832868198538E+001
 0.131566711419217E+001
 0.131537032846520E+001
 0.131958586311899E+001
 0.134706050163245E+001
 0.132488867457590E+001
 0.134852177101135E+001
 0.133593385310957E+001
 0.135504774321079E+001
 0.136892570699854E+001
 0.137504039703457E+001
 0.136530344086537E+001
 0.132829474124422E+001
 0.133459348811745E+001
 0.132503133184121E+001
 0.132844027535975E+001
 0.133400802232717E+001
 0.132209928593058E+001
 0.134102323874752E+001
 0.133300597224222E+001
 0.132484155758917E+001
 0.131801945011312E+001
 0.132902866179742E+001
 0.132478369153173E+001
 0.133154850450807E+001
 0.133956506145331E+001
 0.133732312530243E+001
 0.133671115474406E+001
 0.132130406131792E+001
 0.131038941805682E+001
 0.131401328219953E+001
 0.131375794417060E+001
 0.131152980077609E+001
 0.132100220892363E+001
 0.131866052183063E+001
 0.131770698521034E+001
 0.130633739493830E+001
 0.133382140153624E+001
 0.131200438076243E+001
 0.132622868658942E+001
 0.131517075936022E+001
 0.131478548348381E+001
 0.133674949941328E+001
 0.132443756806325E+001
 0.137859245538935E+001
 0.134498602005997E+001
 0.135376792870807E+001
 0.136061604158326E+001
 0.133074181839746E+001
 0.133634360810696E+001
 0.134024338843881E+001
 0.133427480568034E+001
 0.128636977233980E+001
 0.128993029295322E+001
 0.130498246616248E+001
 0.129543400345953E+001
 0.142953870816790E+001
 0.137756359584505E+001
 0.138895682856769E+001
 0.139310774538286E+001
 0.130912502247552E+001
 0.133620176041241E+001
 0.130439782631182E+001
 0.131225147273555E+001
 0.131251714061164E+001
 0.132250287491169E+001
 0.131849364259375E+001
 0.131917815109302E+001
 0.146808149768086E+001
 0.143268075883884E+001
 0.146161026843258E+001
 0.145373812221280E+001
 0.126206220899320E+001
 0.127946212704070E+001
 0.126946161778966E+001
 0.126828786477374E+001
 0.133952762635987E+001
 0.133883439798932E+001
 0.130858226611549E+001
 0.132899635258643E+001
 0.131612476299266E+001
 0.129410083487334E+001
 0.133569937179690E+001
 0.131505454702186E+001
 0.133598069081911E+001
 0.134962091573976E+001
 0.134398334006546E+001
 0.134325663639313E+001
 0.123605155717596E+001
 0.124675184875943E+001
 0.124385476443926E+001
 0.124118637087500E+001
 0.124843823723053E+001
 0.123613696598791E+001
 0.124423852995044E+001
 0.124152333619308E+001
 0.130770571414639E+001
 0.133696503269614E+001
 0.133887504765976E+001
 0.132682261731858E+001
 0.125746544696855E+001
 0.124808832896012E+001
 0.125419963331939E+001
 0.125189969523214E+001
 0.140739084668302E+001
 0.138072487215214E+001
 0.143445181521530E+001
 0.140765281967401E+001
 0.126247948537759E+001
 0.126882297961921E+001
 0.127942349997308E+001
 0.126798835890605E+001
 0.128667737202920E+001
 0.126930790448020E+001
 0.128339193418115E+001
 0.127883621209799E+001
 0.124652280146920E+001
 0.125603818568874E+001
 0.125675899730115E+001
 0.124994541225916E+001
 0.146509417868389E+001
 0.146591399011411E+001
 0.146504425954593E+001
 0.146579636341758E+001
 0.138411206324633E+001
 0.144669110760998E+001
 0.141609191577940E+001
 0.141559697259119E+001
 0.133191139295835E+001
 0.128959796406233E+001
 0.130522978887762E+001
 0.130766550095044E+001
 0.132882739341355E+001
 0.138521852159117E+001
 0.135571774524305E+001
 0.135577303919437E+001
 0.138510659025938E+001
 0.135471243401145E+001
 0.136038222746309E+001
 0.136367311053073E+001
 0.128463152954249E+001
 0.132960352182893E+001
 0.130376378595649E+001
 0.130513246884392E+001
 0.135781880403003E+001
 0.133882785052308E+001
 0.138631887946286E+001
 0.136019226361776E+001
 0.146912032758640E+001
 0.146254509168515E+001
 0.143587445931948E+001
 0.145522029149187E+001
 0.138103011888501E+001
 0.141326181345195E+001
 0.143668335911367E+001
 0.141041774989390E+001
 0.145126520306242E+001
 0.142762716852114E+001
 0.141944269036209E+001
 0.143012765771828E+001
 0.136743411979027E+001
 0.139302088797340E+001
 0.139832320507420E+001
 0.138766024097996E+001
 0.143071443492025E+001
 0.142569545905772E+001
 0.145261093950818E+001
 0.143841782031605E+001
 0.136776059947830E+001
 0.136978205132081E+001
 0.138761022691753E+001
 0.137746940572409E+001
 0.124923552092437E+001
 0.124487393646259E+001
 0.125146159698738E+001
 0.124900140622091E+001
 0.123602124970223E+001
 0.124738495080737E+001
 0.124255413065982E+001
 0.124100523270927E+001
 0.138366049454417E+001
 0.141342339702346E+001
 0.144615998505934E+001
 0.141389482457045E+001
 0.135851330792250E+001
 0.138588514155546E+001
 0.133956933819501E+001
 0.135969316996554E+001
 0.137000625938942E+001
 0.135577533422873E+001
 0.135337481974634E+001
 0.136136929507618E+001
 0.137955979979376E+001
 0.143575154615252E+001
 0.141023248394365E+001
 0.140837403038983E+001
 0.137211393845211E+001
 0.139818754355645E+001
 0.138236323686983E+001
 0.137824404901659E+001
 0.144122611632739E+001
 0.139419119849141E+001
 0.141577365864493E+001
 0.142027391093968E+001
 0.145918237077400E+001
 0.144518057492103E+001
 0.145271787763685E+001
 0.144923917002015E+001
 0.140999577172973E+001
 0.138784717493311E+001
 0.138238331738149E+001
 0.139617221873010E+001
 0.145354282714914E+001
 0.142704097936261E+001
 0.143632393829158E+001
 0.144431921197848E+001
 0.139831843879472E+001
 0.139958566455031E+001
 0.138131832726070E+001
 0.139052020799723E+001
 0.136678520105963E+001
 0.138726043642474E+001
 0.137205700811656E+001
 0.137752602209910E+001
 0.142661203414280E+001
 0.142821944616998E+001
 0.141303310976051E+001
 0.142044000249346E+001
 0.146389083048822E+001
 0.146168991701505E+001
 0.145648341267250E+001
 0.146135924215209E+001
 0.141244165507849E+001
 0.139051424597452E+001
 0.143782213052272E+001
 0.142054777449653E+001
 0.146407065802139E+001
 0.146399484130280E+001
 0.145871517912991E+001
 0.146216924403306E+001
 0.146911288424922E+001
 0.147632304741324E+001
 0.146849260481650E+001
 0.147410108857584E+001
 0.142727767319458E+001
 0.145379034041849E+001
 0.143671261587139E+001
 0.144507503761396E+001
 0.144037228433401E+001
 0.145642243896682E+001
 0.145185235226110E+001
 0.144795604559692E+001
 0.142072455729244E+001
 0.140570014073749E+001
 0.140539261163034E+001
 0.141273118589808E+001
 0.141114958501487E+001
 0.140662783043432E+001
 0.142437339589835E+001
 0.141581828914210E+001
 0.142893223014414E+001
 0.142718385766461E+001
 0.141284637773401E+001
 0.142079356142576E+001
 0.143481425726447E+001
 0.143372986481827E+001
 0.144708621560830E+001
 0.144106017053229E+001
 0.127149657963951E+001
 0.126388933345351E+001
 0.127907114272405E+001
 0.127268493866025E+001
 0.133299465029843E+001
 0.133504453403162E+001
 0.134891582979347E+001
 0.133905498364039E+001
 0.133520980162937E+001
 0.134188306665852E+001
 0.133993923659535E+001
 0.133778952469656E+001
 0.133823218130107E+001
 0.133399066700225E+001
 0.133326634138741E+001
 0.133585722705641E+001
 0.137890644614114E+001
 0.139168770791785E+001
 0.134940262667143E+001
 0.136699368538386E+001
 0.134562588542881E+001
 0.137850727307162E+001
 0.135871165206475E+001
 0.136259330997141E+001
 0.133224669347762E+001
 0.133994825537129E+001
 0.133315184761201E+001
 0.133528506818564E+001
 0.137226155189624E+001
 0.139611150786238E+001
 0.139601030984232E+001
 0.138435773537227E+001
 0.128630210803814E+001
 0.127857097805109E+001
 0.129386731677876E+001
 0.128819169308686E+001
 0.133025695550793E+001
 0.129855804870560E+001
 0.129569366869896E+001
 0.130557997397044E+001
 0.131303997579778E+001
 0.132546877426739E+001
 0.132514862096358E+001
 0.132107070703867E+001
 0.123870782465156E+001
 0.125285412089809E+001
 0.125283700363277E+001
 0.124534631537222E+001
 0.133629786766555E+001
 0.131766905327884E+001
 0.131059001430969E+001
 0.132486234245927E+001
 0.130966509673140E+001
 0.132220977356641E+001
 0.131109039261881E+001
 0.131382904949171E+001
 0.131682018369970E+001
 0.132417884914525E+001
 0.131008609599213E+001
 0.131584616145145E+001
 0.132726006222132E+001
 0.135747745226868E+001
 0.133376766383344E+001
 0.134186499962692E+001
 0.126897665043134E+001
 0.128351328255990E+001
 0.128657936561342E+001
 0.127826742462317E+001
 0.138904902129348E+001
 0.143032237820388E+001
 0.137345916849861E+001
 0.139563042216269E+001
 0.134048436382970E+001
 0.130977357796066E+001
 0.133822488098936E+001
 0.132831940029302E+001
 0.129479853893776E+001
 0.130246618055383E+001
 0.130512516230951E+001
 0.129802480377590E+001
 0.130875061144542E+001
 0.130268733696006E+001
 0.129537755798501E+001
 0.130246362592745E+001
 0.130340234183595E+001
 0.128996639788022E+001
 0.128464853333184E+001
 0.129516574693003E+001
 0.136644778608153E+001
 0.133250497313793E+001
 0.135326028056814E+001
 0.134776458515043E+001
 0.139534108876507E+001
 0.144611506505251E+001
 0.139622349456847E+001
 0.140969432541197E+001
 0.142857590947601E+001
 0.138799474018781E+001
 0.137541462206651E+001
 0.138982941432496E+001
 0.135564130685888E+001
 0.134444149934726E+001
 0.130821621775650E+001
 0.133685524745535E+001
 0.123608839120814E+001
 0.124806121893057E+001
 0.124409026008222E+001
 0.124139584941967E+001
 0.126930438021140E+001
 0.127031668897494E+001
 0.128245925576862E+001
 0.127362026349325E+001
 0.135924406563020E+001
 0.136039741107016E+001
 0.131123614912340E+001
 0.134596710514136E+001
 0.133183860155706E+001
 0.128655816624996E+001
 0.131440327387729E+001
 0.131150443198643E+001
 0.124392529482891E+001
 0.126024313055233E+001
 0.123715052173141E+001
 0.124320187892426E+001
 0.125668171403639E+001
 0.124777966953552E+001
 0.126563833483175E+001
 0.124990232411543E+001
 0.135048156772564E+001
 0.130346578110975E+001
 0.132175181945682E+001
 0.132402327248789E+001
 0.130847519304429E+001
 0.130391028254181E+001
 0.133615369517118E+001
 0.131230391754755E+001
 0.127205971815873E+001
 0.127968672981786E+001
 0.125981965836169E+001
 0.126885404022782E+001
 0.129831384024091E+001
 0.134557623837906E+001
 0.129778996516846E+001
 0.131056372136863E+001
 0.136710602181623E+001
 0.133666611490040E+001
 0.136715371132784E+001
 0.135692117442422E+001
 0.124678799398966E+001
 0.127046425472615E+001
 0.127194493384823E+001
 0.126323666734536E+001
 0.125631667284347E+001
 0.126268580907364E+001
 0.124928051828484E+001
 0.125289908609941E+001
 0.128541281985788E+001
 0.129587392618628E+001
 0.127468367407759E+001
 0.128443102539896E+001
 0.142004358546814E+001
 0.141879200736601E+001
 0.139902725094275E+001
 0.140957658659204E+001
 0.125981942630057E+001
 0.125321281927340E+001
 0.124649369904822E+001
 0.124997231358799E+001
 0.125767802004751E+001
 0.124008474446324E+001
 0.123890988666295E+001
 0.123946648262064E+001
 0.133285970482726E+001
 0.132656276597873E+001
 0.133097064548984E+001
 0.133056339252395E+001
 0.132785102835958E+001
 0.133014810442286E+001
 0.132416365245083E+001
 0.132610052470218E+001
 0.129174730776833E+001
 0.129850722606486E+001