# vtk DataFile Version 3.0
Unstructured Grid
ASCII
DATASET UNSTRUCTURED_GRID
FIELD FieldData 1
TIME 1 1 float
  0.538125E+02
POINTS          640 double
 0.000000000000000E+000 0.000000000000000E+000 0.000000000000000E+000
 0.100000000000000E+001 0.000000000000000E+000 0.000000000000000E+000
 0.100000000000000E+001 0.100000000000000E+001 0.000000000000000E+000
 0.000000000000000E+000 0.100000000000000E+001 0.000000000000000E+000
 0.125000000000000E+000 0.250000000000000E+000 0.000000000000000E+000
 0.375000000000000E+000 0.250000000000000E+000 0.000000000000000E+000
 0.375000000000000E+000 0.750000000000000E+000 0.000000000000000E+000
 0.125000000000000E+000 0.750000000000000E+000 0.000000000000000E+000
 0.625000000000000E+000 0.250000000000000E+000 0.000000000000000E+000
 0.875000000000000E+000 0.250000000000000E+000 0.000000000000000E+000
 0.875000000000000E+000 0.750000000000000E+000 0.000000000000000E+000
 0.625000000000000E+000 0.750000000000000E+000 0.000000000000000E+000
 0.100000000000000E+001 0.500000000000000E+000 0.000000000000000E+000
 0.000000000000000E+000 0.500000000000000E+000 0.000000000000000E+000
 0.500000000000000E+000 0.000000000000000E+000 0.000000000000000E+000
 0.125000000000000E+000 0.500000000000000E+000 0.000000000000000E+000
 0.000000000000000E+000 0.750000000000000E+000 0.000000000000000E+000
 0.000000000000000E+000 0.250000000000000E+000 0.000000000000000E+000
 0.000000000000000E+000 0.875000000000000E+000 0.000000000000000E+000
 0.000000000000000E+000 0.125000000000000E+000 0.000000000000000E+000
 0.625000000000000E-001 0.812500000000000E+000 0.000000000000000E+000
 0.125000000000000E+000 0.375000000000000E+000 0.000000000000000E+000
 0.125000000000000E+000 0.625000000000000E+000 0.000000000000000E+000
 0.500000000000000E+000 0.100000000000000E+001 0.000000000000000E+000
 0.250000000000000E+000 0.100000000000000E+001 0.000000000000000E+000
 0.125000000000000E+000 0.100000000000000E+001 0.000000000000000E+000
 0.729166666666667E-001 0.885416666666667E+000 0.000000000000000E+000
 0.000000000000000E+000 0.625000000000000E+000 0.000000000000000E+000
 0.625000000000000E-001 0.562500000000000E+000 0.000000000000000E+000
 0.375000000000000E+000 0.500000000000000E+000 0.000000000000000E+000
 0.375000000000000E+000 0.100000000000000E+001 0.000000000000000E+000
 0.250000000000000E+000 0.000000000000000E+000 0.000000000000000E+000
 0.625000000000000E-001 0.187500000000000E+000 0.000000000000000E+000
 0.143518518518519E+000 0.775462962962963E-001 0.000000000000000E+000
 0.156250000000000E+000 0.156250000000000E+000 0.000000000000000E+000
 0.729166666666667E-001 0.114583333333333E+000 0.000000000000000E+000
 0.125000000000000E+000 0.000000000000000E+000 0.000000000000000E+000
 0.250000000000000E+000 0.250000000000000E+000 0.000000000000000E+000
 0.375000000000000E+000 0.000000000000000E+000 0.000000000000000E+000
 0.187500000000000E+000 0.218750000000000E+000 0.000000000000000E+000
 0.312500000000000E+000 0.762453007518797E-001 0.000000000000000E+000
 0.270259392278489E+000 0.159169301283415E+000 0.000000000000000E+000
 0.365310977506407E+000 0.155367112827996E+000 0.000000000000000E+000
 0.312500000000000E+000 0.216265619131990E+000 0.000000000000000E+000
 0.500000000000000E+000 0.189389379011873E+000 0.000000000000000E+000
 0.426456487258648E+000 0.196919158251449E+000 0.000000000000000E+000
 0.451620395371675E+000 0.941243892751461E-001 0.000000000000000E+000
 0.381804756165356E+000 0.871724813114945E-001 0.000000000000000E+000
 0.437500000000000E+000 0.273708879364394E-001 0.000000000000000E+000
 0.000000000000000E+000 0.375000000000000E+000 0.000000000000000E+000
 0.625000000000000E-001 0.312500000000000E+000 0.000000000000000E+000
 0.250000000000000E+000 0.750000000000000E+000 0.000000000000000E+000
 0.158482142857143E+000 0.851934523809524E+000 0.000000000000000E+000
 0.210861885404568E+000 0.921875000000000E+000 0.000000000000000E+000
 0.136017278952732E+000 0.925863358051789E+000 0.000000000000000E+000
 0.625000000000000E-001 0.687500000000000E+000 0.000000000000000E+000
 0.250000000000000E+000 0.437500000000000E+000 0.000000000000000E+000
 0.247528011619582E+000 0.839830719156545E+000 0.000000000000000E+000
 0.312500000000000E+000 0.796669265575374E+000 0.000000000000000E+000
 0.419664368355990E+000 0.875000000000000E+000 0.000000000000000E+000
 0.313183356674252E+000 0.918387829019328E+000 0.000000000000000E+000
 0.312500000000000E+000 0.100000000000000E+001 0.000000000000000E+000
 0.380617553087688E+000 0.931527612480385E+000 0.000000000000000E+000
 0.187500000000000E+000 0.785936956899548E+000 0.000000000000000E+000
 0.350379273974835E+000 0.857317802397078E+000 0.000000000000000E+000
 0.228046514569416E+000 0.817347524546315E-001 0.000000000000000E+000
 0.187500000000000E+000 0.312500000000000E+000 0.000000000000000E+000
 0.625000000000000E-001 0.437500000000000E+000 0.000000000000000E+000
 0.197916666666667E+000 0.385416666666667E+000 0.000000000000000E+000
 0.375000000000000E+000 0.375000000000000E+000 0.000000000000000E+000
 0.750000000000000E+000 0.000000000000000E+000 0.000000000000000E+000
 0.625000000000000E-001 0.959280303030303E+000 0.000000000000000E+000
 0.234375000000000E+000 0.562500000000000E+000 0.000000000000000E+000
 0.187500000000000E+000 0.687500000000000E+000 0.000000000000000E+000
 0.193892045454545E+000 0.618607954545455E+000 0.000000000000000E+000
 0.375000000000000E+000 0.625000000000000E+000 0.000000000000000E+000
 0.283775504647110E+000 0.640801989544002E+000 0.000000000000000E+000
 0.281298714846257E+000 0.504888901855782E+000 0.000000000000000E+000
 0.331282779604339E+000 0.562500000000000E+000 0.000000000000000E+000
 0.338845441361880E+000 0.687500000000000E+000 0.000000000000000E+000
 0.500000000000000E+000 0.775815254846569E+000 0.000000000000000E+000
 0.625000000000000E-001 0.407196969696970E-001 0.000000000000000E+000
 0.328125000000000E+000 0.437500000000000E+000 0.000000000000000E+000
 0.284143518518519E+000 0.340856481481482E+000 0.000000000000000E+000
 0.312500000000000E+000 0.278356481481482E+000 0.000000000000000E+000
 0.625000000000000E+000 0.500000000000000E+000 0.000000000000000E+000
 0.410581328448014E+000 0.312500000000000E+000 0.000000000000000E+000
 0.543730092976870E+000 0.258404709955172E+000 0.000000000000000E+000
 0.625000000000000E+000 0.375000000000000E+000 0.000000000000000E+000
 0.500000000000000E+000 0.404784409423024E+000 0.000000000000000E+000
 0.590394028376448E+000 0.312500000000000E+000 0.000000000000000E+000
 0.467392923590959E+000 0.261422480241605E+000 0.000000000000000E+000
 0.508234229043035E+000 0.327522431406248E+000 0.000000000000000E+000
 0.625000000000000E+000 0.000000000000000E+000 0.000000000000000E+000
 0.537311919648379E+000 0.110523699730938E+000 0.000000000000000E+000
 0.750000000000000E+000 0.250000000000000E+000 0.000000000000000E+000
 0.593146640296986E+000 0.172723366619635E+000 0.000000000000000E+000
 0.623771215502605E+000 0.890722450407200E-001 0.000000000000000E+000
 0.687500000000000E+000 0.454068088573020E-001 0.000000000000000E+000
 0.793069391389776E+000 0.125000000000000E+000 0.000000000000000E+000
 0.695513657869308E+000 0.162768437982326E+000 0.000000000000000E+000
 0.687500000000000E+000 0.250000000000000E+000 0.000000000000000E+000
 0.875000000000000E+000 0.500000000000000E+000 0.000000000000000E+000
 0.727921748554044E+000 0.101601148842529E+000 0.000000000000000E+000
 0.759582972952604E+000 0.183381972603444E+000 0.000000000000000E+000
 0.875000000000000E+000 0.375000000000000E+000 0.000000000000000E+000
 0.718750000000000E+000 0.343750000000000E+000 0.000000000000000E+000
 0.697916666666667E+000 0.437500000000000E+000 0.000000000000000E+000
 0.750000000000000E+000 0.572048611111111E+000 0.000000000000000E+000
 0.787123226950355E+000 0.408133865248227E+000 0.000000000000000E+000
 0.804687500000000E+000 0.320312500000000E+000 0.000000000000000E+000
 0.700214460784314E+000 0.513965482026144E+000 0.000000000000000E+000
 0.783021635712153E+000 0.493366127722916E+000 0.000000000000000E+000
 0.625000000000000E+000 0.625000000000000E+000 0.000000000000000E+000
 0.848380638879200E+000 0.437500000000000E+000 0.000000000000000E+000
 0.562500000000000E+000 0.404604515401992E-001 0.000000000000000E+000
 0.875000000000000E+000 0.625000000000000E+000 0.000000000000000E+000
 0.750000000000000E+000 0.750000000000000E+000 0.000000000000000E+000
 0.697046765904942E+000 0.621060933265583E+000 0.000000000000000E+000
 0.200520833333333E+000 0.494791666666667E+000 0.000000000000000E+000
 0.429642360217793E+000 0.800955091165693E+000 0.000000000000000E+000
 0.453073336954457E+000 0.687500000000000E+000 0.000000000000000E+000
 0.548183885155829E+000 0.693587592964698E+000 0.000000000000000E+000
 0.750000000000000E+000 0.100000000000000E+001 0.000000000000000E+000
 0.573843760532799E+000 0.437500000000000E+000 0.000000000000000E+000
 0.500000000000000E+000 0.550126792242997E+000 0.000000000000000E+000
 0.511972906944656E+000 0.477455600833011E+000 0.000000000000000E+000
 0.437507615834863E+000 0.452402202857321E+000 0.000000000000000E+000
 0.546458141439317E+000 0.614345103225503E+000 0.000000000000000E+000
 0.571440414895569E+000 0.547357897962524E+000 0.000000000000000E+000
 0.450991397292447E+000 0.610087136082382E+000 0.000000000000000E+000
 0.875000000000000E+000 0.000000000000000E+000 0.000000000000000E+000
 0.100000000000000E+001 0.250000000000000E+000 0.000000000000000E+000
 0.100000000000000E+001 0.375000000000000E+000 0.000000000000000E+000
 0.687500000000000E+000 0.700324699898860E+000 0.000000000000000E+000
 0.812500000000000E+000 0.687500000000000E+000 0.000000000000000E+000
 0.804621866531165E+000 0.617121866531165E+000 0.000000000000000E+000
 0.825181931429427E+000 0.549770415540467E+000 0.000000000000000E+000
 0.100000000000000E+001 0.625000000000000E+000 0.000000000000000E+000
 0.100000000000000E+001 0.750000000000000E+000 0.000000000000000E+000
[...]
CELL_DATA         1212
SCALARS tdens double 1
LOOKUP_TABLE default
 0.141957774038631E-009
 0.546118130371443E-010
 0.741697210884902E-010
 0.727856978637365E-010
 0.948436322295837E-009
 0.216362609452113E-008
 0.825941421268122E-009
 0.101448223676703E-008
 0.656421240973198E-001
 0.346518218288638E-001
 0.786784452782039E-001
 0.161601435232561E+000
 0.420337132638104E-010
 0.369196893242116E-010
 0.289598586489573E-010
 0.321576480360117E-010
 0.538091836943568E-010
 0.141573792635347E-009
 0.739012205056979E-010
 0.723082520485040E-010
 0.700477107485327E-010
 0.117854666472070E-009
 0.115154560456160E-009
 0.949496655859471E-010
 0.245787947901456E-009
 0.148694237410487E-009
 0.167729631553938E-009
 0.182567426680651E-009
 0.178304790172251E-007
 0.626017262269711E-008
 0.199862152192213E-008
 0.593002043639353E-008
 0.256915980546710E-001
 0.416810812821584E+000
 0.457425064920526E-002
 0.108906667894925E+000
 0.251353063839725E-010
 0.223970850235457E-010
 0.243828186998120E-010
 0.235383698961017E-010
 0.241185961314176E-008
 0.105963842317590E-008
 0.191875088889325E-008
 0.187144901503919E-008
 0.989582985863139E-010
 0.122504367027862E-009
 0.144938235052654E-009
 0.119763050351578E-009
 0.820954742419128E-009
 0.993335772080954E-009
 0.165036909600571E-009
 0.470383483240544E-009
 0.131984811091489E+000
 0.310251150120839E-001
 0.168988253801108E-001
 0.120731281173628E+000
 0.402510425466181E-009
 0.380158792701143E-009
 0.447423073733704E-009
 0.405705718139976E-009
 0.330369251485938E-001
 0.959472771292432E-001
 0.177631194026328E+001
 0.340465745372437E+000
 0.355891780994479E-010
 0.263158057810654E-010
 0.265494839512936E-010
 0.279832663739637E-010
 0.382794322596898E-010
 0.423380195663426E-010
 0.485519913472661E-010
 0.431759212082440E-010
 0.452195474629601E-010
 0.608045040240489E-010
 0.269031115798949E-010
 0.350913903360037E-010
 0.137435124830755E-002
 0.236973732741275E-001
 0.948501657139281E-004
 0.407423134034383E-002
 0.181818981385773E-008
 0.365753957077186E-009
 0.138458283717370E-008
 0.893777116052873E-009
 0.294632691401800E-010
 0.248582339052369E-010
 0.225158017852607E-010
 0.240767669470914E-010
 0.246724830940127E-001
 0.105288819118452E+000
 0.561906117684174E-002
 0.393347322857193E-001
 0.593561187576016E-010
 0.502081335068078E-010
 0.513204989077025E-010
 0.543696925745609E-010
 0.348140485313960E-010
 0.265085187785024E-010
 0.270780709501075E-010
 0.282309037655906E-010
 0.202007336641569E-009
 0.248483915645119E-009
 0.453909008624969E-009
 0.267442906278747E-009
 0.559401616126663E-010
 0.480347110819920E-010
 0.624610260975740E-010
 0.540634869748411E-010
 0.311378452023819E-001
 0.133043047076747E-001
 0.264651737990423E+000
 0.399502817820217E-003
 0.226845993262074E-009
 0.493488989904759E-010
 0.655397308805072E-010
 0.796586440195598E-010
 0.144980317317434E-008
 0.103687361600114E-007
 0.281962418697526E-008
 0.225702651283044E-008
 0.133601821258777E-009
 0.706013235038042E-010
 0.872470146572656E-010
 0.923141652855855E-010
 0.120704511971228E-009
 0.489584176063941E-010
 0.480840832571886E-010
 0.595703742592076E-010
 0.659935869082191E-002
 0.561611386196340E-001
 0.538378899244542E-002
 0.287185048089130E-001
 0.642001152826047E-009
 0.329171781580940E-009
 0.905715192149174E-009
 0.626647942905423E-009
 0.129173873628076E-008
 0.352379924551358E-008
 0.120984679927694E-008
 0.144361106106144E-008
 0.607739827625457E-010
 0.769786854165081E-010
 0.107253985634492E-009
 0.806378339624857E-010
 0.407029999714092E-010
 0.262368125942528E-010
 0.343550717660157E-010
 0.321454725416457E-010
 0.202575107922567E-009
 0.102784725588611E-009
 0.379022631061288E-009
 0.180129547784379E-009
 0.967360076366463E-010
 0.155109705422478E-009
 0.141577550548073E-009
 0.128055718742086E-009
 0.251949887945426E-010
 0.224187548032979E-010
 0.245314948893887E-010
 0.237036247478118E-010
 0.356022946743414E-010
 0.266496198329075E-010
 0.264342249506710E-010
 0.281122687595954E-010
 0.491300228801901E-010
 0.435159819399953E-010
 0.268142066275074E-010
 0.344764724090393E-010
 0.882286669889570E+000
 0.392999910392794E+000
 0.710195828696491E-002
 0.631426381704881E+000
 0.560341527864486E-004
 0.125568299740427E-003
 0.325620376084034E+001
 0.743521587953303E-004
 0.317458104099383E+000
 0.796052111139277E-001
 0.455802172521226E+000
 0.470331107222698E-001
 0.447970041140042E-009
 0.526799957204787E-009
 0.638771047624824E-009
 0.528759351093093E-009
 0.379787917646003E-009
 0.102336100877834E-009
 0.210739263662586E-009
 0.183746561748324E-009
 0.805904398844122E-010
 0.700028711663513E-010
 0.136066695269383E-009
 0.894637893857412E-010
 0.520708312169075E-010
 0.503321981143681E-010
 0.596753440747154E-010
 0.547482527381033E-010
 0.321440838347771E-009
 0.506880482155885E-009
 0.244913908378001E-009
 0.327729602455194E-009
 0.624727434721768E-010
 0.480077930023026E-010
 0.557759844342467E-010
 0.540219655678060E-010
 0.147842923709122E-009
 0.231556574921535E-009
 0.179538232396452E-009
 0.185205134970085E-009
 0.412273445288200E-010
 0.487236856035151E-010
 0.628239163303550E-010
 0.507409023885041E-010
 0.331734919772766E-010
 0.372721151538248E-010
 0.256941252383150E-010
 0.304534513954384E-010
 0.629940446674912E-010
 0.102177612591698E-009
 0.788142066114434E-010
 0.792828844602683E-010
 0.106617070462154E-009
 0.162316397992165E-009
 0.171209574606798E-009
 0.143570864719308E-009
 0.376405332909078E-009
 0.492430018077779E-009
 0.448848710620294E-009
 0.441879129356355E-009
 0.380505570392501E-009
 0.740196780063787E-009
 0.105943475079172E-008
 0.699346546881186E-009
 0.538983551391711E-007
 0.844418422817063E-008
 0.780963066255310E-008
 0.875851183414002E-008
 0.873995572740560E-008
 0.227614003251633E-007
 0.331998987683865E-007
 0.288266493753183E-007
 0.528960323968431E-008
 0.157856075656078E-007
 0.242843499388048E-008
 0.557388828931947E-008
 0.555505842296763E-010
 0.435940486924526E-010
 0.662616342654295E-010
 0.532894884512760E-010
 0.228848432801483E-007
 0.158806770975117E-007
 0.425034729112536E-008
 0.941869233671738E-008
 0.258698910893048E-008
 0.137168854976403E-007
 0.578992088010049E-008
 0.573556161149587E-008
 0.167588274282196E-009
 0.240415363490421E-009
 0.243684828024129E-009
 0.211389983685010E-009
 0.713265389235555E-009
 0.417708632474178E-009
 0.864354584441170E-009
 0.667189226097293E-009
 0.295083181697441E-009
 0.341634557479978E-009
 0.381968113100406E-009
 0.326711276351901E-009
 0.142048170611865E-005
 0.422940108326534E-005
 0.641311027701352E-004
 0.247202739678753E-005
 0.584402400017426E-008
 0.137278316745263E-008
 0.443014973501437E-008
 0.486036524204092E-008
 0.161473287931878E-008
 0.378429473443933E-008
 0.125652156159546E-008
 0.167847085229076E-008
 0.242485942660628E-008
 0.254212197532196E-008
 0.907147950923645E-009
 0.216505042361694E-008
 0.216444817772637E-009
 0.238295915904706E-009
 0.165151999487073E-009
 0.204734155413730E-009
 0.874814067744760E-009
 0.263370613462205E-008
 0.145959579333587E-008
 0.137422834274905E-008
 0.817136587014055E-008
 0.465763159393599E-007
 0.528223303595961E-007
 0.466732007187147E-007
 0.507571106123467E-009
 0.829147128716323E-009
 0.410230905715290E-009
 0.520597147726614E-009
 0.373675510379775E-010
 0.333094982189775E-010
 0.257378913886097E-010
 0.305414593615329E-010
 0.276541197502542E-009
 0.376827728524176E-009
 0.307421230692299E-009
 0.314203517480810E-009
 0.652148512950331E-009
 0.924317706612434E-009
 0.556582106692930E-009
 0.665738687465396E-009
 0.301521790797897E-009
 0.344011151977058E-009
 0.336927247231874E-009
 0.330387977170009E-009
 0.360527849253815E-009
 0.460550223481358E-009
 0.366224224605752E-009
 0.382920631405797E-009
 0.309828374458238E-010
 0.415934310283582E-010
 0.383566410658600E-010
 0.357158874299659E-010
 0.394471835723095E-010
 0.295169779422513E-010
 0.364521267723922E-010
 0.320983957650526E-010
 0.204826238918947E-009
 0.661777810579852E-010
 0.469581731613482E-010
 0.722483538802470E-010
 0.156756839738635E-008
 0.118729572884200E-008
 0.327687422387828E-009
 0.782923474005617E-009
 0.454562416312600E-009
 0.329020251469186E-009
 0.218340158255199E-009
 0.321750020822560E-009
 0.805674623734574E-010
 0.132010595191120E-009
 0.699859207821791E-010
 0.890380354085128E-010
 0.124440532947399E+001
 0.539935028030195E+000
 0.111079631935254E+000
 0.887956643535766E+000
 0.163800992973627E-009
 0.251641590051897E-009
 0.200378589387522E-009
 0.190315936010545E-009
 0.410241634607834E-010
 0.602141662808156E-010
 0.487792952824510E-010
 0.498006456616133E-010
 0.127511427923719E-009
 0.814779773170385E-010
 0.694146675127714E-010
 0.885590633313770E-010
 0.403577549718192E-010
 0.300917310699305E-010
 0.375812380740990E-010
 0.345977866822142E-010
 0.121916916487028E-009
 0.470827496343266E-010
 0.491472928829096E-010
 0.592302788845819E-010
 0.135039199286215E+000
 0.235678029698421E-001
 0.250889155554078E+000
 0.493597462251340E-001
 0.567922875616739E-002
 0.848305192857411E-001
 0.582974008596830E-002
 0.378155090673517E-001
 0.581281288057722E-008
 0.256265961776063E-007
 0.189414140779122E-007
 0.226336874082314E-007
 0.742825338608140E-009
 0.432281041156826E-009
 0.669063966495849E-009
 0.616070791572279E-009
 0.347625322309050E-008
 0.132048997429828E-008
 0.648812948589953E-008
 0.405056870178159E-008
 0.149056807633738E-008
 0.507872928652379E-008
 0.836597725915253E-008
 0.457750417731561E-008
 0.380259465028323E-009
 0.433604678062413E-009
 0.310508789264668E-009
 0.381893709382136E-009
 0.123722503221246E-008
 0.108802347636182E-008
 0.274195650177420E-008
 0.131514391195282E-008
 0.448410741286525E-009
 0.413165124629848E-009
 0.692970024340852E-009
 0.474667427674480E-009
 0.483455229998034E-009
 0.748671074772805E-009
 0.546757353163009E-009
 0.567486812379972E-009
 0.333598101633096E-009
 0.230383160168529E-009
 0.297545157056818E-009
 0.289072934638035E-009
 0.239663668274722E-009
 0.327871631555306E-009
 0.278920494414438E-009
 0.267260882135907E-009
 0.151100427167458E-007
 0.352367361577612E-007
 0.380935047213238E-008
 0.920223908485510E-008
 0.140996685019637E-008
 0.260031189595480E-008
 0.122977098874282E-007
 0.217559700406264E-008
 0.146473894029579E-007
 0.206414730903062E-008
 0.423943884041840E-008
 0.435695814920867E-008
 0.501934481987947E-009
 0.777384964091278E-009
 0.802100316570405E-009
 0.720669799306811E-009
 0.283129291275265E-009
 0.234218131479774E-009
 0.515372217510423E-009
 0.309710729924607E-009
 0.133100946031522E+001
 0.872084182352910E+000
 0.903694300195799E-002
 0.159854414919497E+001
 0.280273346267922E-001
 0.595293536839042E-002
 0.186300210411682E+000
 0.518049983670260E-001
 0.263902042620641E-009
 0.356904347382862E-009
 0.271375282426654E-009
 0.290270133215444E-009
 0.169465235494269E-001
 0.338942826386240E-001
 0.119899949992534E+000
 0.133185600451104E+000
 0.421362471497063E-001
 0.899430413901566E-001
 0.523939398382939E-001
 0.344771456174658E-001
 0.282445800397741E-001
 0.632072180688327E+000
 0.309217243578531E+000
 0.435677642627553E+000
 0.149497371303616E+000
 0.296954324619580E+000
 0.405277645690193E+000
 0.468945607797563E+000
 0.632904365464843E-009
 0.137264174705818E-008
 0.827912377001100E-009
 0.848037247202618E-009
 0.223792149414844E-010
 0.255503902233952E-010
 0.246814259104220E-010
 0.238023247589505E-010
 0.310022135567422E-010
 0.224483189159761E-010
 0.250025479155842E-010
 0.241817724383601E-010
 0.101641675701295E+000
 0.112142439952698E+000
 0.212240193567455E-001
 0.108909173178644E+000
 0.631244579047076E-010
 0.433476537906361E-010
 0.551190005824702E-010
 0.522218367280733E-010
 0.142093550884473E-001
 0.259792845830723E+000
 0.184301530473995E-001
 0.255985176677336E-001
 0.441380377757039E-001
 0.337365318041312E-001
 0.194678677887019E+000
 0.207019304991768E-001
 0.747233157136153E-002
 0.604981157188207E-002
 0.868389350863567E-001
 0.324733642138754E-001
 0.524269216932522E-002
 0.861278588568738E-001
 0.537210971784606E-002
 0.355426142677567E-001
 0.421762416256362E-004
 0.753758416174895E-004
 0.812853829904270E-004
 0.870588865327499E-004
 0.278354110665090E-001
 0.181705816010407E-001
 0.840362883444946E+000
 0.929299985895971E-001
 0.815602071902585E+000
 0.281218874224914E+000
 0.158646341732951E-001
 0.671285595218542E+000
 0.154126675491820E-002
 0.414303842037196E-002
 0.135939594491831E+001
 0.176602787205204E-001
 0.467689314368150E-002
 0.643818396313358E-001
 0.249729271417089E+000
 0.201699442759024E-001
 0.323239862647816E-001
 0.656933647036622E-001
 0.638094785264267E+000
 0.592436618233405E-001
 0.726416968456429E-003
 0.569306753478053E-001
 0.498136159757734E-001
 0.210472174030287E-001
 0.114809352823175E-001
 0.145378601688156E+001
 0.892509601114113E+000
 0.154291130640679E+001
 0.191282877027495E+001
 0.124705476365114E-001
 0.229187301890159E+001
 0.229201165425355E+001
 0.302559356964126E+000
 0.350142399141296E-001
 0.244091632848948E+000
 0.308897247447317E+000
 0.534424386620595E-002
 0.192835311762588E+000
 0.614544635472907E-002
 0.376844427785748E-001
 0.433528072409324E-004
 0.117358855431414E-003
 0.297592261018033E+000
 0.429846631089745E-004
 0.988379657905039E-008
 0.851754125271319E-008
 0.823539644626871E-007
 0.991968142595951E-008
 0.422323761916262E-010
 0.380952345234115E-010
 0.483683810216690E-010
 0.430195457418888E-010
 0.261814989225732E-010
 0.402380662153467E-010
 0.341883205056763E-010
 0.320073518900745E-010
 0.113036423900019E-001
 0.352077269378068E-001
 0.167139562173913E-003
 0.145047845590512E-001
 0.558390505268773E+000
 0.239237548470696E+000
 0.229490044703517E+000
 0.285312504664430E+000
 0.135461246839230E-003
 0.890615805267520E+000
 0.300754690162094E-001
 0.980837169472636E-001
 0.549578465173534E+000
 0.138660848538410E+001
 0.372908782336758E+000
 0.725460910173041E+000
 0.224810340421508E-002
 0.704425810555314E-002
 0.323903486688402E-001
 0.105596630971230E-001
 0.135756803746906E+001
 0.661683318824571E-001
 0.156600926085827E-001
 0.248637492781203E+000
 0.328837356642379E+001
 0.135584249371084E-004
 0.341302547108997E+001
 0.465384146344877E+001
 0.492824148242633E-005
 0.544743298444333E-007
 0.371037386051902E-007
 0.459835361870036E-007
 0.227067861233271E+001
 0.712159257401220E-003
 0.410980374328500E-004
 0.515973930297015E-004
 0.673339173353823E-007
 0.385173363031471E-007
 0.855505577199590E-008
 0.431981553632841E-007
 0.445129498635634E-008
 0.378435880763723E-007
 0.656067983662415E-008
 0.666384234675189E-008
 0.826370705623535E-005
 0.234122879052428E-004
 0.895700982660171E-006
 0.173954669328100E-004
 0.126769456712843E-003
 0.233766585389407E+000
 0.250026195747658E-003
 0.523940804265724E-003
 0.925647466349533E-002
 0.843478194833486E-002
 0.967109594777867E+000
 0.127346501703807E+000
 0.685919273348422E-004
 0.554799930606119E-004
 0.456206192441311E-004
 0.580859435194270E-004
 0.308267228578374E+000
 0.116739969995438E-002
 0.427291933712610E-003
 0.417214907914909E-003
 0.431744783926042E-002
 0.186066412149561E+001
 0.251730800312178E-003
 0.263371619833299E-003
 0.279156231433785E-004
 0.403710357371189E+001
 0.329269551567879E+001
 0.434952189911919E+001
 0.128914952249868E-004
 0.997232395778278E-006
 0.974926625034852E-006
 0.795412753484293E-006
 0.418013659477648E-005
 0.140386628253802E-005
 0.567563328358588E-004
 0.217702147484815E-005
 0.235208262170518E-004
 0.849787191219297E-005
 0.878483764321247E-006
 0.166106736900257E-004
 0.326931615883470E-004
 0.377685402595781E-004
 0.447330736752831E+001
 0.173609549880827E-004
 0.104821171582603E-009
 0.847632871594338E-010
 0.167157181706416E-009
 0.109929828680356E-009
 0.646089457150485E-009
 0.107081234493461E-008
 0.142371318957485E-008
 0.100756140902469E-008
 0.377707346851386E-009
 0.565710530615783E-009
 0.517927463070626E-009
 0.485788236297471E-009
 0.530239611426454E-009
 0.367303744327358E-009
 0.391867618748522E-009
 0.409482133207984E-009
 0.137885918079878E-007
 0.112014997104947E-007
 0.225698432730794E-008
 0.119468185571079E-007
 0.217101066808901E-008
 0.150273931410009E-007
 0.323757094748666E-008
 0.334163191175578E-008
 0.479929731503435E-009
 0.592007269456871E-009
 0.409663106208222E-009
 0.487569473427608E-009
 0.435722856187792E-008
 0.273139647647173E-007
 0.401017483127178E-007
 0.264686731650975E-007
 0.134951127891345E-009
 0.121654878310279E-009
 0.211025580826753E-009
 0.148107169160814E-009
 0.251536960543634E+000
 0.883647885864948E-001
 0.171865587772087E+000
 0.193505032273842E+000
 0.413777590153497E-009
 0.757077628865475E-009
 0.503414893641642E-009
 0.521886221104279E-009
 0.294919810190291E-010
 0.506581787348112E-010
 0.517098852089983E-010
 0.403176716995097E-010
 0.271546223566821E-007
 0.239406483034046E-008
 0.104048126060549E-007
 0.452640803178315E-008
 0.318300312651390E-009
 0.387749573156073E-009
 0.267696760389768E-009
 0.323936808514781E-009
 0.805068446011094E-009
 0.818146666074416E-009
 0.436258812484753E-009
 0.719340145296707E-009
 0.212037994059664E-008
 0.119478810804322E-007
 0.191872427139244E-008
 0.211678416292524E-008
 0.598534091552773E-002
 0.529012475023080E-001
 0.711751858177664E-002
 0.331881429459809E-001
 0.374693924821260E+000
 0.240720812922453E+001
 0.840911048376232E+000
 0.111524034632014E+001
 0.228806582562217E-001
 0.282089402490618E+000
 0.383465952162345E+000
 0.369493611390911E+000
 0.160219951609764E-009
 0.239422748291586E-009
 0.217594293064826E-009
 0.193425292736703E-009
 0.690960267212194E-009
 0.372054308868986E-009
 0.332422687846016E-009
 0.410333396315081E-009
 0.728956784533969E-009
 0.323656835565616E-009
 0.312013259406647E-009
 0.389289124751894E-009
 0.167908873187233E-007
 0.256180916160768E-008
 0.166434137599678E-007
 0.132705115614955E-007
 0.416214587865619E-001
 0.177255739260619E-002
 0.297171845426855E-001
 0.993076436607226E-002
 0.729294118218048E+000
 0.457746487585486E-001
 0.364886558820458E+000
 0.697221653467910E+000
 0.235508078152392E+000
 0.536044322034678E+000
 0.379103011393574E+000
 0.540824688648097E+000
 0.225409347705311E-010
 0.292255726348275E-010
 0.246739696410570E-010
 0.241842882389796E-010
 0.472045444848866E-010
 0.737430764051700E-010
 0.227469403393708E-009
 0.746045851539430E-010
 0.120631455021387E-001
 0.161701670369463E-001
 0.149298918627118E-001
 0.331607264476219E-002
 0.187301056697804E-001
 0.673430889100435E-002
 0.133289239779391E-001
 0.422362275635734E-002
 0.162490309223143E+000
 0.440264706581866E-001
 0.585682231866343E-001
 0.964344724586274E-001
 0.919393308519964E-002
 0.953177356302817E-002
 0.461134786746564E-001
 0.660176797971881E-001
 0.158878886078635E-001
 0.423245696571510E-001
 0.634234626457239E+000
 0.122392322486653E+000
 0.319910996774390E-001
 0.201834785313088E+000
 0.655714446962459E-002
 0.624465454518228E-001
 0.142490551764419E+000
 0.878763560811540E-001
 0.416734710060048E-001
 0.631934081568869E-001
 0.116497567628906E-001
 0.993109131914807E-001
 0.268557534714398E+000
 0.232148790289084E-001
 0.948204688940247E-002
 0.556657472944522E+000
 0.661430526586815E+000
 0.111381863237009E+001
 0.104086131482895E+000
 0.246100889961003E-003
 0.204338051254792E+000
 0.120016109127678E+000
 0.435366469051883E-001
 0.217486970232485E+000
 0.245924570144061E-001
 0.906225394195198E-001
 0.276659577764155E-009
 0.606337346521006E-009
 0.148409995452069E-009
 0.304984784568662E-009
 0.476226315861808E-005
 0.266414310713073E-005
 0.606882398217136E-007
 0.454974793163491E-005
 0.286258515480743E-002
 0.179791276644414E-002
 0.237735385729302E-001
 0.976155080804391E-002
 0.155511160122785E-001
 0.379004276158769E-001
 0.179309101222323E-001
 0.800665481615589E-003
 0.345992189001499E-009
 0.303654648246864E-009
 0.348338423585260E-009
 0.333582438921285E-009
 0.380282444465092E-009
 0.354864491331564E-009
 0.296317329990520E-009
 0.334815763797277E-009
 0.375128137537375E-002
 0.694626201500181E-001