# vtk DataFile Version 3.0
Unstructured Grid
ASCII
DATASET UNSTRUCTURED_GRID
FIELD FieldData 1
TIME 1 1 float
  0.155625E+02
POINTS          640 double
 0.000000000000000E+000 0.000000000000000E+000 0.000000000000000E+000
 0.100000000000000E+001 0.000000000000000E+000 0.000000000000000E+000
 0.100000000000000E+001 0.100000000000000E+001 0.000000000000000E+000
 0.000000000000000E+000 0.100000000000000E+001 0.000000000000000E+000
 0.125000000000000E+000 0.250000000000000E+000 0.000000000000000E+000
 0.375000000000000E+000 0.250000000000000E+000 0.000000000000000E+000
 0.375000000000000E+000 0.750000000000000E+000 0.000000000000000E+000
 0.125000000000000E+000 0.750000000000000E+000 0.000000000000000E+000
 0.625000000000000E+000 0.250000000000000E+000 0.000000000000000E+000
 0.875000000000000E+000 0.250000000000000E+000 0.000000000000000E+000
 0.875000000000000E+000 0.750000000000000E+000 0.000000000000000E+000
 0.625000000000000E+000 0.750000000000000E+000 0.000000000000000E+000
 0.100000000000000E+001 0.500000000000000E+000 0.000000000000000E+000
 0.000000000000000E+000 0.500000000000000E+000 0.000000000000000E+000
 0.500000000000000E+000 0.000000000000000E+000 0.000000000000000E+000
 0.125000000000000E+000 0.500000000000000E+000 0.000000000000000E+000
 0.000000000000000E+000 0.750000000000000E+000 0.000000000000000E+000
 0.000000000000000E+000 0.250000000000000E+000 0.000000000000000E+000
 0.000000000000000E+000 0.875000000000000E+000 0.000000000000000E+000
 0.000000000000000E+000 0.125000000000000E+000 0.000000000000000E+000
 0.625000000000000E-001 0.812500000000000E+000 0.000000000000000E+000
 0.125000000000000E+000 0.375000000000000E+000 0.000000000000000E+000
 0.125000000000000E+000 0.625000000000000E+000 0.000000000000000E+000
 0.500000000000000E+000 0.100000000000000E+001 0.000000000000000E+000
 0.250000000000000E+000 0.100000000000000E+001 0.000000000000000E+000
 0.125000000000000E+000 0.100000000000000E+001 0.000000000000000E+000
 0.729166666666667E-001 0.885416666666667E+000 0.000000000000000E+000
 0.000000000000000E+000 0.625000000000000E+000 0.000000000000000E+000
 0.625000000000000E-001 0.562500000000000E+000 0.000000000000000E+000
 0.375000000000000E+000 0.500000000000000E+000 0.000000000000000E+000
 0.375000000000000E+000 0.100000000000000E+001 0.000000000000000E+000
 0.250000000000000E+000 0.000000000000000E+000 0.000000000000000E+000
 0.625000000000000E-001 0.187500000000000E+000 0.000000000000000E+000
 0.143518518518519E+000 0.775462962962963E-001 0.000000000000000E+000
 0.156250000000000E+000 0.156250000000000E+000 0.000000000000000E+000
 0.729166666666667E-001 0.114583333333333E+000 0.000000000000000E+000
 0.125000000000000E+000 0.000000000000000E+000 0.000000000000000E+000
 0.250000000000000E+000 0.250000000000000E+000 0.000000000000000E+000
 0.375000000000000E+000 0.000000000000000E+000 0.000000000000000E+000
 0.187500000000000E+000 0.218750000000000E+000 0.000000000000000E+000
 0.312500000000000E+000 0.762453007518797E-001 0.000000000000000E+000
 0.270259392278489E+000 0.159169301283415E+000 0.000000000000000E+000
 0.365310977506407E+000 0.155367112827996E+000 0.000000000000000E+000
 0.312500000000000E+000 0.216265619131990E+000 0.000000000000000E+000
 0.500000000000000E+000 0.189389379011873E+000 0.000000000000000E+000
 0.426456487258648E+000 0.196919158251449E+000 0.000000000000000E+000
 0.451620395371675E+000 0.941243892751461E-001 0.000000000000000E+000
 0.381804756165356E+000 0.871724813114945E-001 0.000000000000000E+000
 0.437500000000000E+000 0.273708879364394E-001 0.000000000000000E+000
 0.000000000000000E+000 0.375000000000000E+000 0.000000000000000E+000
 0.625000000000000E-001 0.312500000000000E+000 0.000000000000000E+000
 0.250000000000000E+000 0.750000000000000E+000 0.000000000000000E+000
 0.158482142857143E+000 0.851934523809524E+000 0.000000000000000E+000
 0.210861885404568E+000 0.921875000000000E+000 0.000000000000000E+000
 0.136017278952732E+000 0.925863358051789E+000 0.000000000000000E+000
 0.625000000000000E-001 0.687500000000000E+000 0.000000000000000E+000
 0.250000000000000E+000 0.437500000000000E+000 0.000000000000000E+000
 0.247528011619582E+000 0.839830719156545E+000 0.000000000000000E+000
 0.312500000000000E+000 0.796669265575374E+000 0.000000000000000E+000
 0.419664368355990E+000 0.875000000000000E+000 0.000000000000000E+000
 0.313183356674252E+000 0.918387829019328E+000 0.000000000000000E+000
 0.312500000000000E+000 0.100000000000000E+001 0.000000000000000E+000
 0.380617553087688E+000 0.931527612480385E+000 0.000000000000000E+000
 0.187500000000000E+000 0.785936956899548E+000 0.000000000000000E+000
 0.350379273974835E+000 0.857317802397078E+000 0.000000000000000E+000
 0.228046514569416E+000 0.817347524546315E-001 0.000000000000000E+000
 0.187500000000000E+000 0.312500000000000E+000 0.000000000000000E+000
 0.625000000000000E-001 0.437500000000000E+000 0.000000000000000E+000
 0.197916666666667E+000 0.385416666666667E+000 0.000000000000000E+000
 0.375000000000000E+000 0.375000000000000E+000 0.000000000000000E+000
 0.750000000000000E+000 0.000000000000000E+000 0.000000000000000E+000
 0.625000000000000E-001 0.959280303030303E+000 0.000000000000000E+000
 0.234375000000000E+000 0.562500000000000E+000 0.000000000000000E+000
 0.187500000000000E+000 0.687500000000000E+000 0.000000000000000E+000
 0.193892045454545E+000 0.618607954545455E+000 0.000000000000000E+000
 0.375000000000000E+000 0.625000000000000E+000 0.000000000000000E+000
 0.283775504647110E+000 0.640801989544002E+000 0.000000000000000E+000
 0.281298714846257E+000 0.504888901855782E+000 0.000000000000000E+000
 0.331282779604339E+000 0.562500000000000E+000 0.000000000000000E+000
 0.338845441361880E+000 0.687500000000000E+000 0.000000000000000E+000
 0.500000000000000E+000 0.775815254846569E+000 0.000000000000000E+000
 0.625000000000000E-001 0.407196969696970E-001 0.000000000000000E+000
 0.328125000000000E+000 0.437500000000000E+000 0.000000000000000E+000
 0.284143518518519E+000 0.340856481481482E+000 0.000000000000000E+000
 0.312500000000000E+000 0.278356481481482E+000 0.000000000000000E+000
 0.625000000000000E+000 0.500000000000000E+000 0.000000000000000E+000
 0.410581328448014E+000 0.312500000000000E+000 0.000000000000000E+000
 0.543730092976870E+000 0.258404709955172E+000 0.000000000000000E+000
 0.625000000000000E+000 0.375000000000000E+000 0.000000000000000E+000
 0.500000000000000E+000 0.404784409423024E+000 0.000000000000000E+000
 0.590394028376448E+000 0.312500000000000E+000 0.000000000000000E+000
 0.467392923590959E+000 0.261422480241605E+000 0.000000000000000E+000
 0.508234229043035E+000 0.327522431406248E+000 0.000000000000000E+000
 0.625000000000000E+000 0.000000000000000E+000 0.000000000000000E+000
 0.537311919648379E+000 0.110523699730938E+000 0.000000000000000E+000
 0.750000000000000E+000 0.250000000000000E+000 0.000000000000000E+000
 0.593146640296986E+000 0.172723366619635E+000 0.000000000000000E+000
 0.623771215502605E+000 0.890722450407200E-001 0.000000000000000E+000
 0.687500000000000E+000 0.454068088573020E-001 0.000000000000000E+000
 0.793069391389776E+000 0.125000000000000E+000 0.000000000000000E+000
 0.695513657869308E+000 0.162768437982326E+000 0.000000000000000E+000
 0.687500000000000E+000 0.250000000000000E+000 0.000000000000000E+000
 0.875000000000000E+000 0.500000000000000E+000 0.000000000000000E+000
 0.727921748554044E+000 0.101601148842529E+000 0.000000000000000E+000
 0.759582972952604E+000 0.183381972603444E+000 0.000000000000000E+000
 0.875000000000000E+000 0.375000000000000E+000 0.000000000000000E+000
 0.718750000000000E+000 0.343750000000000E+000 0.000000000000000E+000
 0.697916666666667E+000 0.437500000000000E+000 0.000000000000000E+000
 0.750000000000000E+000 0.572048611111111E+000 0.000000000000000E+000
 0.787123226950355E+000 0.408133865248227E+000 0.000000000000000E+000
 0.804687500000000E+000 0.320312500000000E+000 0.000000000000000E+000
 0.700214460784314E+000 0.513965482026144E+000 0.000000000000000E+000
 0.783021635712153E+000 0.493366127722916E+000 0.000000000000000E+000
 0.625000000000000E+000 0.625000000000000E+000 0.000000000000000E+000
 0.848380638879200E+000 0.437500000000000E+000 0.000000000000000E+000
 0.562500000000000E+000 0.404604515401992E-001 0.000000000000000E+000
 0.875000000000000E+000 0.625000000000000E+000 0.000000000000000E+000
 0.750000000000000E+000 0.750000000000000E+000 0.000000000000000E+000
 0.697046765904942E+000 0.621060933265583E+000 0.000000000000000E+000
 0.200520833333333E+000 0.494791666666667E+000 0.000000000000000E+000
 0.429642360217793E+000 0.800955091165693E+000 0.000000000000000E+000
 0.453073336954457E+000 0.687500000000000E+000 0.000000000000000E+000
 0.548183885155829E+000 0.693587592964698E+000 0.000000000000000E+000
 0.750000000000000E+000 0.100000000000000E+001 0.000000000000000E+000
 0.573843760532799E+000 0.437500000000000E+000 0.000000000000000E+000
 0.500000000000000E+000 0.550126792242997E+000 0.000000000000000E+000
 0.511972906944656E+000 0.477455600833011E+000 0.000000000000000E+000
 0.437507615834863E+000 0.452402202857321E+000 0.000000000000000E+000
 0.546458141439317E+000 0.614345103225503E+000 0.000000000000000E+000
 0.571440414895569E+000 0.547357897962524E+000 0.000000000000000E+000
 0.450991397292447E+000 0.610087136082382E+000 0.000000000000000E+000
 0.875000000000000E+000 0.000000000000000E+000 0.000000000000000E+000
 0.100000000000000E+001 0.250000000000000E+000 0.000000000000000E+000
 0.100000000000000E+001 0.375000000000000E+000 0.000000000000000E+000
 0.687500000000000E+000 0.700324699898860E+000 0.000000000000000E+000
 0.812500000000000E+000 0.687500000000000E+000 0.000000000000000E+000
 0.804621866531165E+000 0.617121866531165E+000 0.000000000000000E+000
 0.825181931429427E+000 0.549770415540467E+000 0.000000000000000E+000
 0.100000000000000E+001 0.625000000000000E+000 0.000000000000000E+000
 0.100000000000000E+001 0.750000000000000E+000 0.000000000000000E+000
[...]
CELL_DATA         1212
SCALARS tdens double 1
LOOKUP_TABLE default
 0.211472154133570E-001
 0.167821951286677E-001
 0.176292317180417E-001
 0.180544470639048E-001
 0.428199567252839E-001
 0.540437906285446E-001
 0.411655204239839E-001
 0.447602184076156E-001
 0.157024388593746E+000
 0.103037994796886E+000
 0.817999279813922E-001
 0.139532857357123E+000
 0.152530681489403E-001
 0.156295168115885E-001
 0.138377576882633E-001
 0.144533652006796E-001
 0.167775408954769E-001
 0.211242111166827E-001
 0.176223742591907E-001
 0.180495542504433E-001
 0.164575566140773E-001
 0.197170125223477E-001
 0.200618571102587E-001
 0.185306412431658E-001
 0.261565731022092E-001
 0.222352940845747E-001
 0.223441408949921E-001
 0.234690914380026E-001
 0.898469588826240E-001
 0.695737359577780E-001
 0.516545352685601E-001
 0.691825947422687E-001
 0.105700598000067E+000
 0.179225374564012E+000
 0.126866168954676E+000
 0.124462051103189E+000
 0.123692827956897E-001
 0.111201285692216E-001
 0.119497942784478E-001
 0.116623579244207E-001
 0.578859101757960E-001
 0.449993593910241E-001
 0.535719119518686E-001
 0.520892764900073E-001
 0.183166282957796E-001
 0.205745043721127E-001
 0.211995132910234E-001
 0.200824371890511E-001
 0.340025280187222E-001
 0.306262222347488E-001
 0.208946325362076E-001
 0.266750988778891E-001
 0.456575577698442E+000
 0.366253679034931E+000
 0.455612263009295E+000
 0.396559895164528E+000
 0.333528969800750E-001
 0.329843216105793E-001
 0.344840621472279E-001
 0.335247685628970E-001
 0.456422894583278E+000
 0.366921742268247E+000
 0.463657540664282E+000
 0.398120416080727E+000
 0.140825611863763E-001
 0.125291564480274E-001
 0.129118888556737E-001
 0.132661091723548E-001
 0.130063441588624E-001
 0.137259732061530E-001
 0.142625169850768E-001
 0.137247377009290E-001
 0.139307485060769E-001
 0.126080966124000E-001
 0.124505385713211E-001
 0.129913704151651E-001
 0.408056983856158E+000
 0.386068077975561E+000
 0.300014742495994E+000
 0.410346092326256E+000
 0.339128574044946E-001
 0.261710935553250E-001
 0.378962402484172E-001
 0.317852788910169E-001
 0.121251911775800E-001
 0.118918154720543E-001
 0.111103731567020E-001
 0.116071838190885E-001
 0.463124983539551E-001
 0.535608724371634E-001
 0.749359940952025E-001
 0.620869874616763E-001
 0.164069907832813E-001
 0.151751603150621E-001
 0.163204108788723E-001
 0.160351243030985E-001
 0.141324992142988E-001
 0.125576546461725E-001
 0.129380340694876E-001
 0.133018913143360E-001
 0.228192937787813E-001
 0.237005770468410E-001
 0.293610497473946E-001
 0.251569341866543E-001
 0.152197516813081E-001
 0.146433068184781E-001
 0.162775539227401E-001
 0.152180553238977E-001
 0.388669649615076E-001
 0.123557739036540E+000
 0.865872792314080E-001
 0.868902410258860E-001
 0.235989644295855E-001
 0.172453494262315E-001
 0.173552780347363E-001
 0.192047075601888E-001
 0.434028082149681E-001
 0.714529109166276E-001
 0.480140634261281E-001
 0.510459082162123E-001
 0.197249154985259E-001
 0.161331064786268E-001
 0.172010859422345E-001
 0.176915796555093E-001
 0.208723552863837E-001
 0.169164517484790E-001
 0.165397759526020E-001
 0.178168737332998E-001
 0.267255149268566E-001
 0.406875969500456E-001
 0.178059857098728E-001
 0.255359466894339E-001
 0.332460028419504E-001
 0.262830147561856E-001
 0.353071521755309E-001
 0.310990617858191E-001
 0.451281481443245E-001
 0.581044389935161E-001
 0.445062851703988E-001
 0.481493367248982E-001
 0.155999697926857E-001
 0.166897826790421E-001
 0.189223223527913E-001
 0.169460653105762E-001
 0.133620681997608E-001
 0.114264198034593E-001
 0.125363040748648E-001
 0.122573546853642E-001
 0.224066587142604E-001
 0.190182534213693E-001
 0.259041292304278E-001
 0.215839478158266E-001
 0.179985074035092E-001
 0.209270294622584E-001
 0.205871430955780E-001
 0.195238723812351E-001
 0.123934200642285E-001
 0.111265969578679E-001
 0.119739746606421E-001
 0.116779601159734E-001
 0.141246588547331E-001
 0.129297040478323E-001
 0.125455778924644E-001
 0.132875424536774E-001
 0.125600323065718E-001
 0.139157517398016E-001
 0.124325227303794E-001
 0.129496428546326E-001
 0.157138491289259E+000
 0.785381531006617E-001
 0.982581710206775E-001
 0.144080795074322E+000
 0.340724648104968E+000
 0.319137251571904E+000
 0.399445934185632E+000
 0.343542928650644E+000
 0.151654341753304E+000
 0.474642558470647E-001
 0.107106674865914E+000
 0.716203485055149E-001
 0.342732325944995E-001
 0.359470326804518E-001
 0.378492896754527E-001
 0.359767513444884E-001
 0.260492100025739E-001
 0.190487113878630E-001
 0.227628382345354E-001
 0.217228513858466E-001
 0.174265784879533E-001
 0.162993602344798E-001
 0.199158246893800E-001
 0.177767830600057E-001
 0.163238981522370E-001
 0.151746865974787E-001
 0.164094095155459E-001
 0.160365601481480E-001
 0.285673968783758E-001
 0.321537854119647E-001
 0.254343295894579E-001
 0.283656637519294E-001
 0.162752655121514E-001
 0.146417841804455E-001
 0.152185546479151E-001
 0.152166741836109E-001
 0.224554844828773E-001
 0.261411367955907E-001
 0.232826137961109E-001
 0.238235512130052E-001
 0.133366019270289E-001
 0.142878130208534E-001
 0.154645552991300E-001
 0.144865008882638E-001
 0.124055252537388E-001
 0.130914756744629E-001
 0.113481684696441E-001
 0.120382937713223E-001
 0.159330339757161E-001
 0.193794684219179E-001
 0.170792246047176E-001
 0.172209975144652E-001
 0.186929054608098E-001
 0.217831070592573E-001
 0.217281266185238E-001
 0.203811114607723E-001
 0.329848121395246E-001
 0.358088756359108E-001
 0.342708888266719E-001
 0.342748389943144E-001
 0.276566204368766E-001
 0.357569512924809E-001
 0.374507129363511E-001
 0.329013636013989E-001
 0.117167728289344E+000
 0.790208898686239E-001
 0.767567586672175E-001
 0.834417482445474E-001
 0.833454200297034E-001
 0.114028654516324E+000
 0.102949017370844E+000
 0.100429150452693E+000
 0.698815797950553E-001
 0.920225578240577E-001
 0.558337386418407E-001
 0.709293694054501E-001
 0.149215819804219E-001
 0.136498839156674E-001
 0.158326811583842E-001
 0.145623610330262E-001
 0.761487100950398E-001
 0.460484574528724E-001
 0.487261738469680E-001
 0.600182305397959E-001
 0.564135356440408E-001
 0.946128839910205E-001
 0.726035831542091E-001
 0.708341029338946E-001
 0.238081805734778E-001
 0.277292720631760E-001
 0.270138939205669E-001
 0.260792529586299E-001
 0.369242664232449E-001
 0.317048926121265E-001
 0.408196581425423E-001
 0.361841516680207E-001
 0.302572297788189E-001
 0.319374327315206E-001
 0.324607411451711E-001
 0.311892935113098E-001
 0.175660201443118E+000
 0.183383773824690E+000
 0.257036148338453E+000
 0.178819862257018E+000
 0.725899973587728E-001
 0.460934766201837E-001
 0.656299021770355E-001
 0.623507516150645E-001
 0.480728212153190E-001
 0.598317858171751E-001
 0.434108006311579E-001
 0.494136084230646E-001
 0.581171577968003E-001
 0.589218213834713E-001
 0.432644568934907E-001
 0.537820930155707E-001
 0.261953248407267E-001
 0.276652930535429E-001
 0.237083393410824E-001
 0.258425413978819E-001
 0.416541140626736E-001
 0.569968990812466E-001
 0.474285214008529E-001
 0.476700065919021E-001
 0.811305022037029E-001
 0.118957123048638E+000
 0.121870710326804E+000
 0.113102712055543E+000
 0.345686773891477E-001
 0.398277388768079E-001
 0.317202398257942E-001
 0.348128292007382E-001
 0.130938711084391E-001
 0.124096572598999E-001
 0.113494041990632E-001
 0.120405656098532E-001
 0.292752022814326E-001
 0.318841251107260E-001
 0.293110947265743E-001
 0.300525976140389E-001
 0.382935696281569E-001
 0.418614263568162E-001
 0.361568706247505E-001
 0.384403455141466E-001
 0.307401570494804E-001
 0.324765090091610E-001
 0.320137769994021E-001
 0.318737768453571E-001
 0.329123463950924E-001
 0.349498082092624E-001
 0.328181757024104E-001
 0.335095187291726E-001
 0.141583513712740E-001
 0.158783452618309E-001
 0.155976303643768E-001
 0.151919688615297E-001
 0.152557516005360E-001
 0.138474139198255E-001
 0.156359290324128E-001
 0.144619917572712E-001
 0.235599667310396E-001
 0.173445607780281E-001
 0.172475414355936E-001
 0.191979007491423E-001
 0.331425542076884E-001
 0.362836504110041E-001
 0.254882979745686E-001
 0.308946100607444E-001
 0.304478766407736E-001
 0.283844152161249E-001
 0.241447981829786E-001
 0.273506605849324E-001
 0.174076559327715E-001
 0.196986261600758E-001
 0.162740895940766E-001
 0.176765766555574E-001
 0.319837931895917E+000
 0.219891595196401E+000
 0.268037124330120E+000
 0.269578620651184E+000
 0.231917752934535E-001
 0.266538265402206E-001
 0.252372967055815E-001
 0.247508794100401E-001
 0.132883113040765E-001
 0.151809548462218E-001
 0.142406088095368E-001
 0.143460961709394E-001
 0.193172945589355E-001
 0.167497583751265E-001
 0.159843038835738E-001
 0.174206985916884E-001
 0.158714262550767E-001
 0.141496477792924E-001
 0.155902704031560E-001
 0.151835745032180E-001
 0.208760042449135E-001
 0.165338117541033E-001
 0.169112171042971E-001
 0.178116329923454E-001
 0.162633258187704E+000
 0.119863428310192E+000
 0.117744224539259E+000
 0.140305305045910E+000
 0.191802455162683E-001
 0.623142407973682E-001
 0.195475288182791E-001
 0.349759755268079E-001
 0.749692141377704E-001
 0.101598818977557E+000
 0.112794750695831E+000
 0.943848200402951E-001
 0.380670671828067E-001
 0.315120534194793E-001
 0.349847971037992E-001
 0.345386681761205E-001
 0.594611859265683E-001
 0.432317953744490E-001
 0.692700737739457E-001
 0.578882346727146E-001
 0.483375146584616E-001
 0.658934973279421E-001
 0.746929259174878E-001
 0.625408054414591E-001
 0.321730192039196E-001
 0.339728490687328E-001
 0.304448542572663E-001
 0.322316112195315E-001
 0.433241912903721E-001
 0.399578979031097E-001
 0.533275067490177E-001
 0.448665434721204E-001
 0.327607756851222E-001
 0.312540292124950E-001
 0.368686676926185E-001
 0.333984005593782E-001
 0.342493672209056E-001
 0.388254349468549E-001
 0.359720157609746E-001
 0.363130994277563E-001
 0.304066215263602E-001
 0.268254659373445E-001
 0.287274320174613E-001
 0.284787585886155E-001
 0.272198153050312E-001
 0.302313780157420E-001
 0.290078858707856E-001
 0.285948178894276E-001
 0.458247126727047E-001
 0.756799900643188E-001
 0.468171711522671E-001
 0.576719197911325E-001
 0.410066832100892E-001
 0.456135942143086E-001
 0.697514932189859E-001
 0.482356371146872E-001
 0.921580471941180E-001
 0.512249304363029E-001
 0.649305238116245E-001
 0.643054575499038E-001
 0.346035501771943E-001
 0.393446608318661E-001
 0.398348823214769E-001
 0.377700616047043E-001
 0.249298847913290E-001
 0.243913545426657E-001
 0.315998698250173E-001
 0.268149563768244E-001
 0.323217024730356E+000
 0.223142522718540E+000
 0.189157178061984E+000
 0.281021872033614E+000
 0.464705722789413E-001
 0.752304473102297E-001
 0.534525682396983E-001
 0.622124171766052E-001
 0.280475489116394E-001
 0.312575068813286E-001
 0.290326330817064E-001
 0.295118976618347E-001
 0.456976340515194E+000
 0.403114883884776E+000
 0.452007281760976E+000
 0.430034835217902E+000
 0.303114973086227E-001
 0.641736737055031E-001
 0.823785394171733E-001
 0.526395502591808E-001
 0.104047918116169E+000
 0.158929382336935E+000
 0.892535271912642E-001
 0.104593083740853E+000
 0.202720346980095E+000
 0.144511005797135E+000
 0.213255436902082E+000
 0.171428549069179E+000
 0.375189499114735E-001
 0.473970539965773E-001
 0.411475372708198E-001
 0.414717128798676E-001
 0.111262339907290E-001
 0.123988513476313E-001
 0.119801936870545E-001
 0.116801694970379E-001
 0.121408016675281E-001
 0.111097244302186E-001
 0.119005962923918E-001
 0.116126470318440E-001
 0.908570350084050E-001
 0.170438598893741E+000
 0.106776785090457E+000
 0.108892409177984E+000
 0.155159917540356E-001
 0.135947848982154E-001
 0.148560021815669E-001
 0.144279179133659E-001
 0.260073213222435E+000
 0.259363627378879E+000
 0.352509145553172E+000
 0.299600840374665E+000
 0.294599714955604E-001
 0.787261419875376E-001
 0.630898781393127E-001
 0.507135789750443E-001
 0.267274322556048E-001
 0.177636521444110E-001
 0.407980073819998E-001
 0.255239567591511E-001
 0.193504773228763E-001
 0.573321637912702E-001
 0.186596794509436E-001
 0.330998945169988E-001
 0.481824195759553E+000
 0.480095180080866E+000
 0.480549110564349E+000
 0.479507852965347E+000
 0.321870193693337E+000
 0.424863507729984E+000
 0.375366594770661E+000
 0.367900988748022E+000
 0.221511954521008E+000
 0.138764453728155E+000
 0.170966860156534E+000
 0.171149065518540E+000
 0.212738018896938E+000
 0.314552120798289E+000
 0.257432764268930E+000
 0.267849464090235E+000
 0.199266179281251E+000
 0.113940715510776E+000
 0.193006722533239E+000
 0.180871166889924E+000
 0.140451484867698E+000
 0.218740410436062E+000
 0.175978333165449E+000
 0.187248322808193E+000
 0.266244001736277E+000
 0.236723108568905E+000
 0.319004589640382E+000
 0.280783952826562E+000
 0.460404586414138E+000
 0.456900534285468E+000
 0.407050981043068E+000
 0.434493249455492E+000
 0.307450924802688E+000
 0.373603723376617E+000
 0.416732241803178E+000
 0.355350145571877E+000
 0.353839073527266E+000
 0.230717465285999E+000
 0.263225265369996E+000
 0.271375899760268E+000
 0.115165145349104E+000
 0.220371250767099E+000
 0.160360151215853E+000
 0.140395988070131E+000
 0.276890772927399E+000
 0.219521953784926E+000
 0.363447163641555E+000
 0.283761235928603E+000
 0.793173518518610E-001
 0.726490293161707E-001
 0.110134190243446E+000
 0.814952775069608E-001
 0.137236600109534E-001
 0.130023615961330E-001
 0.142613857101120E-001
 0.137222132252438E-001
 0.114254546056866E-001
 0.133511569363833E-001
 0.125353425871166E-001
 0.122556521405686E-001
 0.311687659456390E+000
 0.364221478655183E+000
 0.413991563001306E+000
 0.367366743152631E+000
 0.239764959879565E+000
 0.315096030322128E+000
 0.236393052189152E+000
 0.281530556050610E+000
 0.148303133946452E+000
 0.180323130543489E+000
 0.106910865959496E+000
 0.140238318406035E+000
 0.282959223614670E+000
 0.399734930948372E+000
 0.363847357911261E+000
 0.345655096458051E+000
 0.110788742796764E+000
 0.130360360555236E+000
 0.137588252244206E+000
 0.128580594652915E+000
 0.364753867724791E+000
 0.204573614340622E+000
 0.221751918342798E+000
 0.219382923769400E+000
 0.398577231256656E+000
 0.328300145848570E+000
 0.436425747954175E+000
 0.426554711301441E+000
 0.201469809120024E+000
 0.111669658305648E+000
 0.974154988740229E-001
 0.116061153102775E+000
 0.372350217006962E+000
 0.225090307983366E+000
 0.289436776788878E+000
 0.292109495511071E+000
 0.126801758984400E+000
 0.120455469634700E+000
 0.836616981311383E-001
 0.113251715141531E+000
 0.663099014147950E-001
 0.107735702929554E+000
 0.732300327583734E-001
 0.767691563151463E-001
 0.265530189671548E+000
 0.252436568579393E+000
 0.188588622213715E+000
 0.254979703848276E+000
 0.483864871395601E+000
 0.476485474675000E+000
 0.487747268433966E+000
 0.477204665010425E+000
 0.202123511887031E+000
 0.168714662438694E+000
 0.365882669197775E+000
 0.194721679497233E+000
 0.480564578612440E+000
 0.481305133967239E+000
 0.488463042491988E+000
 0.482332543986860E+000
 0.477669709196980E+000
 0.476846432450119E+000
 0.474083413304710E+000
 0.462648632622351E+000
 0.217588105625593E+000
 0.369303505563878E+000
 0.289900699547173E+000
 0.301213151381117E+000
 0.359169779957638E+000
 0.409017385408152E+000
 0.448417630265539E+000
 0.421469781811205E+000
 0.268147060073953E+000
 0.182465317485806E+000
 0.179998509579497E+000
 0.185850073461161E+000
 0.186272637742826E+000
 0.177517717808992E+000
 0.254133218208644E+000
 0.182312344498468E+000
 0.256388378743293E+000
 0.266554828418664E+000
 0.185558025299177E+000
 0.256421833391728E+000
 0.338417906853255E+000
 0.355330527704214E+000
 0.455190217074913E+000
 0.342409163489633E+000
 0.185977277069235E-001
 0.170523128305687E-001
 0.213297628434978E-001
 0.189577526554721E-001
 0.374649478591398E-001
 0.429644435752744E-001
 0.484350089491678E-001
 0.424130774268534E-001
 0.335005103226722E-001
 0.376700811805501E-001
 0.365866352997086E-001
 0.356483533207214E-001
 0.363835974576399E-001
 0.330805411098622E-001
 0.334392518931061E-001
 0.341790718450773E-001
 0.930259838999013E-001
 0.970038226074784E-001
 0.557043285866203E-001
 0.844917924564815E-001
 0.525009948579337E-001
 0.911996111835613E-001
 0.602823885121473E-001
 0.634668213826547E-001
 0.347637455694872E-001
 0.376658025160701E-001
 0.337514547339519E-001
 0.353016744648518E-001
 0.694467865572405E-001
 0.110941579380607E+000
 0.114799378989744E+000
 0.101545737821521E+000
 0.213747568920116E-001
 0.199890381390776E-001
 0.242753275673524E-001
 0.219956342077813E-001
 0.171235664697999E+000
 0.100497400407783E+000
 0.133340824972694E+000
 0.145824827336867E+000
 0.309095533870328E-001
 0.376681461776944E-001
 0.340450504559419E-001
 0.340953181591789E-001
 0.118881694300500E-001
 0.145110401150943E-001
 0.145167887655561E-001
 0.131558711603113E-001
 0.762470216808064E-001
 0.464479016917811E-001
 0.468937659407637E-001
 0.554989441578533E-001
 0.287710494458036E-001
 0.318664154084930E-001
 0.279188936200880E-001
 0.294021958590158E-001
 0.377475675847396E-001
 0.390414535185934E-001
 0.312364490709266E-001
 0.357186462289270E-001
 0.486884284173550E-001
 0.823957965564278E-001
 0.490718907919022E-001
 0.542399199241184E-001
 0.185028592763904E-001
 0.452767184845550E-001
 0.270843509905768E-001
 0.271096741459060E-001
 0.311837320121315E+000
 0.383083078603057E+000
 0.266452879969950E+000
 0.347422598001407E+000
 0.103669410146502E+000
 0.961509996041350E-001
 0.157805371153393E+000
 0.111097325132112E+000
 0.231493558742454E-001
 0.261491932090512E-001
 0.259334183391486E-001
 0.243753284665153E-001
 0.340575924013918E-001
 0.287311058708571E-001
 0.270049676187875E-001
 0.296733649271846E-001
 0.336182802609920E-001
 0.260694625966477E-001
 0.249450833111954E-001
 0.281863964587535E-001
 0.917251791239713E-001
 0.537659858460110E-001
 0.848655377638210E-001
 0.769585003951554E-001
 0.313907914886479E+000
 0.384943298962829E+000
 0.313446003286793E+000
 0.379790552254471E+000
 0.316942143880597E+000
 0.162600179242588E+000
 0.217249123667263E+000
 0.261129749506612E+000
 0.279235128194079E+000
 0.230312254615028E+000
 0.186701510638847E+000
 0.220343761661092E+000
 0.111046493071056E-001
 0.120957453449696E-001
 0.118663739473908E-001
 0.115917739441390E-001
 0.172858801699293E-001
 0.174892687902011E-001
 0.238535212037941E-001
 0.192773714457765E-001
 0.296587315043518E+000
 0.300314730335093E+000
 0.207144375552878E+000
 0.224204183134198E+000
 0.233791785196416E+000
 0.158229714321814E+000
 0.199273788107684E+000
 0.186233906887817E+000
 0.700528054039310E-001
 0.107754648251571E+000
 0.338284919890631E-001
 0.656409330112625E-001
 0.251389192885326E-001
 0.396320509156642E-001
 0.795446284349543E-001
 0.554114034653152E-001
 0.248765112172361E+000
 0.169806238184914E+000
 0.200058615233843E+000
 0.219237202000376E+000
 0.450241083713496E-001
 0.591280850362753E-001
 0.769532824232421E-001
 0.649573595055158E-001
 0.103448328522177E+000
 0.772493222704723E-001
 0.333352220667351E-001
 0.614254043177166E-001
 0.147506489776349E+000
 0.230891809721358E+000
 0.145660260442778E+000
 0.208948385928752E+000
 0.289501586502026E+000
 0.241418022190587E+000
 0.300841191542457E+000
 0.266748776472248E+000
 0.731121283105844E-001
 0.126731244313087E+000
 0.122967685467215E+000
 0.949423677253868E-001
 0.277377095873364E-001
 0.755667604517051E-001
 0.654128133954687E-001
 0.502146227846940E-001
 0.246339973951434E-001
 0.306993570422377E-001
 0.205181999641205E-001
 0.249106364129093E-001
 0.211492082813554E+000
 0.203643854806132E+000
 0.123699242289854E+000
 0.205818344942834E+000
 0.149475693026707E-001
 0.149288139483120E-001
 0.264329814493585E-001
 0.168691350227763E-001
 0.890236340825486E-001
 0.412422436624027E-001
 0.263754328241698E-001
 0.604004018774598E-001
 0.325437773193081E-001
 0.307879207092705E-001
 0.322961652233195E-001
 0.319811247204465E-001
 0.324595815776485E-001
 0.322795724934467E-001
 0.302865861555881E-001
 0.313304012829691E-001
 0.100193106224983E+000
 0.816387474098286E-001