# vtk DataFile Version 3.0
Unstructured Grid
ASCII
DATASET UNSTRUCTURED_GRID
FIELD FieldData 1
TIME 1 1 float
  0.628125E+02
POINTS          640 double
 0.000000000000000E+000 0.000000000000000E+000 0.000000000000000E+000
 0.100000000000000E+001 0.000000000000000E+000 0.000000000000000E+000
 0.100000000000000E+001 0.100000000000000E+001 0.000000000000000E+000
 0.000000000000000E+000 0.100000000000000E+001 0.000000000000000E+000
 0.125000000000000E+000 0.250000000000000E+000 0.000000000000000E+000
 0.375000000000000E+000 0.250000000000000E+000 0.000000000000000E+000
 0.375000000000000E+000 0.750000000000000E+000 0.000000000000000E+000
 0.125000000000000E+000 0.750000000000000E+000 0.000000000000000E+000
 0.625000000000000E+000 0.250000000000000E+000 0.000000000000000E+000
 0.875000000000000E+000 0.250000000000000E+000 0.000000000000000E+000
 0.875000000000000E+000 0.750000000000000E+000 0.000000000000000E+000
 0.625000000000000E+000 0.750000000000000E+000 0.000000000000000E+000
 0.100000000000000E+001 0.500000000000000E+000 0.000000000000000E+000
 0.000000000000000E+000 0.500000000000000E+000 0.000000000000000E+000
 0.500000000000000E+000 0.000000000000000E+000 0.000000000000000E+000
 0.125000000000000E+000 0.500000000000000E+000 0.000000000000000E+000
 0.000000000000000E+000 0.750000000000000E+000 0.000000000000000E+000
 0.000000000000000E+000 0.250000000000000E+000 0.000000000000000E+000
 0.000000000000000E+000 0.875000000000000E+000 0.000000000000000E+000
 0.000000000000000E+000 0.125000000000000E+000 0.000000000000000E+000
 0.625000000000000E-001 0.812500000000000E+000 0.000000000000000E+000
 0.125000000000000E+000 0.375000000000000E+000 0.000000000000000E+000
 0.125000000000000E+000 0.625000000000000E+000 0.000000000000000E+000
 0.500000000000000E+000 0.100000000000000E+001 0.000000000000000E+000
 0.250000000000000E+000 0.100000000000000E+001 0.000000000000000E+000
 0.125000000000000E+000 0.100000000000000E+001 0.000000000000000E+000
 0.729166666666667E-001 0.885416666666667E+000 0.000000000000000E+000
 0.000000000000000E+000 0.625000000000000E+000 0.000000000000000E+000
 0.625000000000000E-001 0.562500000000000E+000 0.000000000000000E+000
 0.375000000000000E+000 0.500000000000000E+000 0.000000000000000E+000
 0.375000000000000E+000 0.100000000000000E+001 0.000000000000000E+000
 0.250000000000000E+000 0.000000000000000E+000 0.000000000000000E+000
 0.625000000000000E-001 0.187500000000000E+000 0.000000000000000E+000
 0.143518518518519E+000 0.775462962962963E-001 0.000000000000000E+000
 0.156250000000000E+000 0.156250000000000E+000 0.000000000000000E+000
 0.729166666666667E-001 0.114583333333333E+000 0.000000000000000E+000
 0.125000000000000E+000 0.000000000000000E+000 0.000000000000000E+000
 0.250000000000000E+000 0.250000000000000E+000 0.000000000000000E+000
 0.375000000000000E+000 0.000000000000000E+000 0.000000000000000E+000
 0.187500000000000E+000 0.218750000000000E+000 0.000000000000000E+000
 0.312500000000000E+000 0.762453007518797E-001 0.000000000000000E+000
 0.270259392278489E+000 0.159169301283415E+000 0.000000000000000E+000
 0.365310977506407E+000 0.155367112827996E+000 0.000000000000000E+000
 0.312500000000000E+000 0.216265619131990E+000 0.000000000000000E+000
 0.500000000000000E+000 0.189389379011873E+000 0.000000000000000E+000
 0.426456487258648E+000 0.196919158251449E+000 0.000000000000000E+000
 0.451620395371675E+000 0.941243892751461E-001 0.000000000000000E+000
 0.381804756165356E+000 0.871724813114945E-001 0.000000000000000E+000
 0.437500000000000E+000 0.273708879364394E-001 0.000000000000000E+000
 0.000000000000000E+000 0.375000000000000E+000 0.000000000000000E+000
 0.625000000000000E-001 0.312500000000000E+000 0.000000000000000E+000
 0.250000000000000E+000 0.750000000000000E+000 0.000000000000000E+000
 0.158482142857143E+000 0.851934523809524E+000 0.000000000000000E+000
 0.210861885404568E+000 0.921875000000000E+000 0.000000000000000E+000
 0.136017278952732E+000 0.925863358051789E+000 0.000000000000000E+000
 0.625000000000000E-001 0.687500000000000E+000 0.000000000000000E+000
 0.250000000000000E+000 0.437500000000000E+000 0.000000000000000E+000
 0.247528011619582E+000 0.839830719156545E+000 0.000000000000000E+000
 0.312500000000000E+000 0.796669265575374E+000 0.000000000000000E+000
 0.419664368355990E+000 0.875000000000000E+000 0.000000000000000E+000
 0.313183356674252E+000 0.918387829019328E+000 0.000000000000000E+000
 0.312500000000000E+000 0.100000000000000E+001 0.000000000000000E+000
 0.380617553087688E+000 0.931527612480385E+000 0.000000000000000E+000
 0.187500000000000E+000 0.785936956899548E+000 0.000000000000000E+000
 0.350379273974835E+000 0.857317802397078E+000 0.000000000000000E+000
 0.228046514569416E+000 0.817347524546315E-001 0.000000000000000E+000
 0.187500000000000E+000 0.312500000000000E+000 0.000000000000000E+000
 0.625000000000000E-001 0.437500000000000E+000 0.000000000000000E+000
 0.197916666666667E+000 0.385416666666667E+000 0.000000000000000E+000
 0.375000000000000E+000 0.375000000000000E+000 0.000000000000000E+000
 0.750000000000000E+000 0.000000000000000E+000 0.000000000000000E+000
 0.625000000000000E-001 0.959280303030303E+000 0.000000000000000E+000
 0.234375000000000E+000 0.562500000000000E+000 0.000000000000000E+000
 0.187500000000000E+000 0.687500000000000E+000 0.000000000000000E+000
 0.193892045454545E+000 0.618607954545455E+000 0.000000000000000E+000
 0.375000000000000E+000 0.625000000000000E+000 0.000000000000000E+000
 0.283775504647110E+000 0.640801989544002E+000 0.000000000000000E+000
 0.281298714846257E+000 0.504888901855782E+000 0.000000000000000E+000
 0.331282779604339E+000 0.562500000000000E+000 0.000000000000000E+000
 0.338845441361880E+000 0.687500000000000E+000 0.000000000000000E+000
 0.500000000000000E+000 0.775815254846569E+000 0.000000000000000E+000
 0.625000000000000E-001 0.407196969696970E-001 0.000000000000000E+000
 0.328125000000000E+000 0.437500000000000E+000 0.000000000000000E+000
 0.284143518518519E+000 0.340856481481482E+000 0.000000000000000E+000
 0.312500000000000E+000 0.278356481481482E+000 0.000000000000000E+000
 0.625000000000000E+000 0.500000000000000E+000 0.000000000000000E+000
 0.410581328448014E+000 0.312500000000000E+000 0.000000000000000E+000
 0.543730092976870E+000 0.258404709955172E+000 0.000000000000000E+000
 0.625000000000000E+000 0.375000000000000E+000 0.000000000000000E+000
 0.500000000000000E+000 0.404784409423024E+000 0.000000000000000E+000
 0.590394028376448E+000 0.312500000000000E+000 0.000000000000000E+000
 0.467392923590959E+000 0.261422480241605E+000 0.000000000000000E+000
 0.508234229043035E+000 0.327522431406248E+000 0.000000000000000E+000
 0.625000000000000E+000 0.000000000000000E+000 0.000000000000000E+000
 0.537311919648379E+000 0.110523699730938E+000 0.000000000000000E+000
 0.750000000000000E+000 0.250000000000000E+000 0.000000000000000E+000
 0.593146640296986E+000 0.172723366619635E+000 0.000000000000000E+000
 0.623771215502605E+000 0.890722450407200E-001 0.000000000000000E+000
 0.687500000000000E+000 0.454068088573020E-001 0.000000000000000E+000
 0.793069391389776E+000 0.125000000000000E+000 0.000000000000000E+000
 0.695513657869308E+000 0.162768437982326E+000 0.000000000000000E+000
 0.687500000000000E+000 0.250000000000000E+000 0.000000000000000E+000
 0.875000000000000E+000 0.500000000000000E+000 0.000000000000000E+000
 0.727921748554044E+000 0.101601148842529E+000 0.000000000000000E+000
 0.759582972952604E+000 0.183381972603444E+000 0.000000000000000E+000
 0.875000000000000E+000 0.375000000000000E+000 0.000000000000000E+000
 0.718750000000000E+000 0.343750000000000E+000 0.000000000000000E+000
 0.697916666666667E+000 0.437500000000000E+000 0.000000000000000E+000
 0.750000000000000E+000 0.572048611111111E+000 0.000000000000000E+000
 0.787123226950355E+000 0.408133865248227E+000 0.000000000000000E+000
 0.804687500000000E+000 0.320312500000000E+000 0.000000000000000E+000
 0.700214460784314E+000 0.513965482026144E+000 0.000000000000000E+000
 0.783021635712153E+000 0.493366127722916E+000 0.000000000000000E+000
 0.625000000000000E+000 0.625000000000000E+000 0.000000000000000E+000
 0.848380638879200E+000 0.437500000000000E+000 0.000000000000000E+000
 0.562500000000000E+000 0.404604515401992E-001 0.000000000000000E+000
 0.875000000000000E+000 0.625000000000000E+000 0.000000000000000E+000
 0.750000000000000E+000 0.750000000000000E+000 0.000000000000000E+000
 0.697046765904942E+000 0.621060933265583E+000 0.000000000000000E+000
 0.200520833333333E+000 0.494791666666667E+000 0.000000000000000E+000
 0.429642360217793E+000 0.800955091165693E+000 0.000000000000000E+000
 0.453073336954457E+000 0.687500000000000E+000 0.000000000000000E+000
 0.548183885155829E+000 0.693587592964698E+000 0.000000000000000E+000
 0.750000000000000E+000 0.100000000000000E+001 0.000000000000000E+000
 0.573843760532799E+000 0.437500000000000E+000 0.000000000000000E+000
 0.500000000000000E+000 0.550126792242997E+000 0.000000000000000E+000
 0.511972906944656E+000 0.477455600833011E+000 0.000000000000000E+000
 0.437507615834863E+000 0.452402202857321E+000 0.000000000000000E+000
 0.546458141439317E+000 0.614345103225503E+000 0.000000000000000E+000
 0.571440414895569E+000 0.547357897962524E+000 0.000000000000000E+000
 0.450991397292447E+000 0.610087136082382E+000 0.000000000000000E+000
 0.875000000000000E+000 0.000000000000000E+000 0.000000000000000E+000
 0.100000000000000E+001 0.250000000000000E+000 0.000000000000000E+000
 0.100000000000000E+001 0.375000000000000E+000 0.000000000000000E+000
 0.687500000000000E+000 0.700324699898860E+000 0.000000000000000E+000
 0.812500000000000E+000 0.687500000000000E+000 0.000000000000000E+000
 0.804621866531165E+000 0.617121866531165E+000 0.000000000000000E+000
 0.825181931429427E+000 0.549770415540467E+000 0.000000000000000E+000
 0.100000000000000E+001 0.625000000000000E+000 0.000000000000000E+000
 0.100000000000000E+001 0.750000000000000E+000 0.000000000000000E+000
[...]
CELL_DATA         1212
SCALARS tdens double 1
LOOKUP_TABLE default
 0.128522073049075E-011
 0.100000000000000E-011
 0.100000000000000E-011
 0.100000000000000E-011
 0.882900840560784E-011
 0.204375947517431E-010
 0.766989983413857E-011
 0.945570257948188E-011
 0.210589780544677E-001
 0.303004992360325E-001
 0.721447135476765E-001
 0.126434526604833E+000
 0.100000000000000E-011
 0.100000000000000E-011
 0.100000000000000E-011
 0.100000000000000E-011
 0.100000000000000E-011
 0.127942762870522E-011
 0.100000000000000E-011
 0.100000000000000E-011
 0.100000000000000E-011
 0.106829540385327E-011
 0.104352377712837E-011
 0.100000000000000E-011
 0.224594959963702E-011
 0.135087978652764E-011
 0.152543097002566E-011
 0.166239086085776E-011
 0.172802249510575E-009
 0.604326036786399E-010
 0.187099134959936E-010
 0.568269308937619E-010
 0.254930010913429E-001
 0.444203476636590E+000
 0.457400079278756E-002
 0.107455083651713E+000
 0.100000000000000E-011
 0.100000000000000E-011
 0.100000000000000E-011
 0.100000000000000E-011
 0.228271448560154E-010
 0.987524495730348E-011
 0.180117913452278E-010
 0.176004669664396E-010
 0.100000000000000E-011
 0.110960342656490E-011
 0.131474312586116E-011
 0.108474276358017E-011
 0.745563938270215E-011
 0.910960435409893E-011
 0.149379837105518E-011
 0.428255021358837E-011
 0.597866268656737E-001
 0.149377481413063E-001
 0.191277381847646E-001
 0.879436261983879E-001
 0.371216420483879E-011
 0.350371487946003E-011
 0.413809119249821E-011
 0.374406762062932E-011
 0.370412248743539E-001
 0.124858438018133E+000
 0.173611487797277E+001
 0.417847414621411E+000
 0.100000000000000E-011
 0.100000000000000E-011
 0.100000000000000E-011
 0.100000000000000E-011
 0.100000000000000E-011
 0.100000000000000E-011
 0.100000000000000E-011
 0.100000000000000E-011
 0.100000000000000E-011
 0.100000000000000E-011
 0.100000000000000E-011
 0.100000000000000E-011
 0.353124469085742E-004
 0.409486223020393E-002
 0.172754446739285E-005
 0.106904690330363E-003
 0.167891318372996E-010
 0.332959917611566E-011
 0.126557925887179E-010
 0.818021007075248E-011
 0.100000000000000E-011
 0.100000000000000E-011
 0.100000000000000E-011
 0.100000000000000E-011
 0.228924894905421E-001
 0.867919420452741E-001
 0.555192343081607E-002
 0.362884857978018E-001
 0.100000000000000E-011
 0.100000000000000E-011
 0.100000000000000E-011
 0.100000000000000E-011
 0.100000000000000E-011
 0.100000000000000E-011
 0.100000000000000E-011
 0.100000000000000E-011
 0.183779488708199E-011
 0.225912900690797E-011
 0.414807059176195E-011
 0.243398149805556E-011
 0.100000000000000E-011
 0.100000000000000E-011
 0.100000000000000E-011
 0.100000000000000E-011
 0.309895360955104E-001
 0.124606040426004E-001
 0.264060551202506E+000
 0.857933132327703E-005
 0.207145756444981E-011
 0.100000000000000E-011
 0.100000000000000E-011
 0.100000000000000E-011
 0.133183714307880E-010
 0.972100205828735E-010
 0.258900660462679E-010
 0.207257911647556E-010
 0.121021338093328E-011
 0.100000000000000E-011
 0.100000000000000E-011
 0.100000000000000E-011
 0.109110954624122E-011
 0.100000000000000E-011
 0.100000000000000E-011
 0.100000000000000E-011
 0.664745896959202E-002
 0.615213718325116E-001
 0.525535516493743E-002
 0.289411488250876E-001
 0.586383689391252E-011
 0.299140458175821E-011
 0.824507804284696E-011
 0.571477032270849E-011
 0.121996063233811E-010
 0.340930012199297E-010
 0.114326002307730E-010
 0.136806279632959E-010
 0.100000000000000E-011
 0.100000000000000E-011
 0.100000000000000E-011
 0.100000000000000E-011
 0.100000000000000E-011
 0.100000000000000E-011
 0.100000000000000E-011
 0.100000000000000E-011
 0.183466411301746E-011
 0.100000000000000E-011
 0.344698399592335E-011
 0.163023452553065E-011
 0.100000000000000E-011
 0.140570979412239E-011
 0.128417099753420E-011
 0.116035796322944E-011
 0.100000000000000E-011
 0.100000000000000E-011
 0.100000000000000E-011
 0.100000000000000E-011
 0.100000000000000E-011
 0.100000000000000E-011
 0.100000000000000E-011
 0.100000000000000E-011
 0.100000000000000E-011
 0.100000000000000E-011
 0.100000000000000E-011
 0.100000000000000E-011
 0.962944498188501E+000
 0.441465416201436E+000
 0.227662020453257E-002
 0.658439965916963E+000
 0.709303811685832E-006
 0.178450734001476E-005
 0.347738383552889E+001
 0.102307703862281E-005
 0.302184491915528E+000
 0.753987261230802E-001
 0.600533400427420E+000
 0.244960166664861E-001
 0.413994905342287E-011
 0.488864367491451E-011
 0.594767282201076E-011
 0.490519710138030E-011
 0.346141839950408E-011
 0.100000000000000E-011
 0.191231358044100E-011
 0.166657739022594E-011
 0.100000000000000E-011
 0.100000000000000E-011
 0.123233345407806E-011
 0.100000000000000E-011
 0.100000000000000E-011
 0.100000000000000E-011
 0.100000000000000E-011
 0.100000000000000E-011
 0.293468016441190E-011
 0.463602909823015E-011
 0.222976527211716E-011
 0.299034005571729E-011
 0.100000000000000E-011
 0.100000000000000E-011
 0.100000000000000E-011
 0.100000000000000E-011
 0.134091770934532E-011
 0.210850722255057E-011
 0.163110320368153E-011
 0.168337384160147E-011
 0.100000000000000E-011
 0.100000000000000E-011
 0.100000000000000E-011
 0.100000000000000E-011
 0.100000000000000E-011
 0.100000000000000E-011
 0.100000000000000E-011
 0.100000000000000E-011
 0.100000000000000E-011
 0.100000000000000E-011
 0.100000000000000E-011
 0.100000000000000E-011
 0.100000000000000E-011
 0.147293835097136E-011
 0.155286443064151E-011
 0.130181234626512E-011
 0.345155012377373E-011
 0.453255042791069E-011
 0.412294302843644E-011
 0.406077147505971E-011
 0.346418471180189E-011
 0.676963078271835E-011
 0.968242469708031E-011
 0.638952988570301E-011
 0.547674731341291E-009
 0.814615596794378E-010
 0.756773507826404E-010
 0.849375300631784E-010
 0.812474374869241E-010
 0.209753524445852E-009
 0.316790076532195E-009
 0.274303420799129E-009
 0.501166161119387E-010
 0.150721431959640E-009
 0.225930456288228E-010
 0.525672701489183E-010
 0.100000000000000E-011
 0.100000000000000E-011
 0.100000000000000E-011
 0.100000000000000E-011
 0.217208198287852E-009
 0.150628064331717E-009
 0.390394867666199E-010
 0.876719771792353E-010
 0.240214953737604E-010
 0.128153357581341E-009
 0.536995193158473E-010
 0.531839946298150E-010
 0.152162542518284E-011
 0.219077394139777E-011
 0.222081407223709E-011
 0.192355671051261E-011
 0.654034862272112E-011
 0.382259783188352E-011
 0.795435097548204E-011
 0.612449560897020E-011
 0.269622915757259E-011
 0.312839099123909E-011
 0.350112486629232E-011
 0.298935249127269E-011
 0.159910223080260E-007
 0.490639203295886E-007
 0.876600736460779E-006
 0.292055933012529E-007
 0.537106980611503E-010
 0.126051694700548E-010
 0.410387943427894E-010
 0.450167327993541E-010
 0.149184306788174E-010
 0.350462471295921E-010
 0.115527000998685E-010
 0.154680926980300E-010
 0.229491313265346E-010
 0.239932050606844E-010
 0.843082660734889E-011
 0.204150530572408E-010
 0.197068867533226E-011
 0.217159978533289E-011
 0.149974748112863E-011
 0.186286708988746E-011
 0.811874889498711E-011
 0.248067316568445E-010
 0.135764253130378E-010
 0.128026259497305E-010
 0.794170164693795E-010
 0.474636913072133E-009
 0.540385499814490E-009
 0.474700688441974E-009
 0.466340729432634E-011
 0.764429402584111E-011
 0.375687452684250E-011
 0.478042062046289E-011
 0.100000000000000E-011
 0.100000000000000E-011
 0.100000000000000E-011
 0.100000000000000E-011
 0.252415267652244E-011
 0.345197198504172E-011
 0.280851778470159E-011
 0.287220237685648E-011
 0.602469176033155E-011
 0.854453648173950E-011
 0.512289434178461E-011
 0.614194923264839E-011
 0.275607059373770E-011
 0.315100204815886E-011
 0.308491715190309E-011
 0.302409368379818E-011
 0.330483448703192E-011
 0.423717873464580E-011
 0.335739799854087E-011
 0.351292230271223E-011
 0.100000000000000E-011
 0.100000000000000E-011
 0.100000000000000E-011
 0.100000000000000E-011
 0.100000000000000E-011
 0.100000000000000E-011
 0.100000000000000E-011
 0.100000000000000E-011
 0.185571715461485E-011
 0.100000000000000E-011
 0.100000000000000E-011
 0.100000000000000E-011
 0.143914782523218E-010
 0.107915386151703E-010
 0.297493051600679E-011
 0.712290926021258E-011
 0.416086118589311E-011
 0.301337582267065E-011
 0.198892134370283E-011
 0.294224446593981E-011
 0.100000000000000E-011
 0.119413110261418E-011
 0.100000000000000E-011
 0.100000000000000E-011
 0.128795124731241E+001
 0.553379715477322E+000
 0.118796774821091E+000
 0.919258776091436E+000
 0.148970177154131E-011
 0.230119060937857E-011
 0.182693316286810E-011
 0.173398997010771E-011
 0.100000000000000E-011
 0.100000000000000E-011
 0.100000000000000E-011
 0.100000000000000E-011
 0.115405872162584E-011
 0.100000000000000E-011
 0.100000000000000E-011
 0.100000000000000E-011
 0.100000000000000E-011
 0.100000000000000E-011
 0.100000000000000E-011
 0.100000000000000E-011
 0.110115093101442E-011
 0.100000000000000E-011
 0.100000000000000E-011
 0.100000000000000E-011
 0.866602635464381E-001
 0.139484081301114E-001
 0.294687887091164E+000
 0.207465308204620E-001
 0.591283949219897E-002
 0.102412401316021E+000
 0.555148488082118E-002
 0.381245106304200E-001
 0.539338195083501E-010
 0.246374394062280E-009
 0.176480254845720E-009
 0.214686062824076E-009
 0.686023830255982E-011
 0.397258673249363E-011
 0.614867135924607E-011
 0.567481933196964E-011
 0.322209458072346E-010
 0.121414546698213E-010
 0.601302824063363E-010
 0.375949655923100E-010
 0.141499882285651E-010
 0.498230247529497E-010
 0.831669348240578E-010
 0.447676809493616E-010
 0.350443640174416E-011
 0.400806574425113E-011
 0.285150822977720E-011
 0.352012835043457E-011
 0.114726184249225E-010
 0.100233756200641E-010
 0.254709322011892E-010
 0.121504320519886E-010
 0.413813931598369E-011
 0.380227203733311E-011
 0.641747689892558E-011
 0.437755990883384E-011
 0.447376704353841E-011
 0.698666436237428E-011
 0.507718597972293E-011
 0.526958156052943E-011
 0.306509619086213E-011
 0.210467236164284E-011
 0.272712536191415E-011
 0.264985816929410E-011
 0.219074546217703E-011
 0.301270621162241E-011
 0.255599541977866E-011
 0.244752478538320E-011
 0.141847128442737E-009
 0.338720330982522E-009
 0.347068767740738E-010
 0.849973910122027E-010
 0.129498338074399E-010
 0.237753000383845E-010
 0.115738558806272E-009
 0.199255783296584E-010
 0.139795818824380E-009
 0.192838229515575E-010
 0.394933710616970E-010
 0.406902980005883E-010
 0.464164366554851E-011
 0.721845010914914E-011
 0.748034659186817E-011
 0.670141625564472E-011
 0.257652096532103E-011
 0.213110237876217E-011
 0.470996777565404E-011
 0.282031291570033E-011
 0.134928730024545E+001
 0.873862649424543E+000
 0.922928164017878E-002
 0.161931375479971E+001
 0.279241795696853E-001
 0.593829970712006E-002
 0.189162713128339E+000
 0.511370158564158E-001
 0.240763036568460E-011
 0.326773020251058E-011
 0.247686987240051E-011
 0.265102442087513E-011
 0.190067390876246E-001
 0.150059266994757E-001
 0.469299290591869E-001
 0.980983257994642E-001
 0.423014305143104E-001
 0.818131913274971E-001
 0.382352321085044E-001
 0.265760560060405E-001
 0.261645982206939E-001
 0.651117582711023E+000
 0.331096024721413E+000
 0.447841053324830E+000
 0.595603310630392E-001
 0.351996304990463E+000
 0.484402293900329E+000
 0.648559284083986E+000
 0.583563095131305E-011
 0.127839267096050E-010
 0.767852528742002E-011
 0.785655930806806E-011
 0.100000000000000E-011
 0.100000000000000E-011
 0.100000000000000E-011
 0.100000000000000E-011
 0.100000000000000E-011
 0.100000000000000E-011
 0.100000000000000E-011
 0.100000000000000E-011
 0.988995448947774E-001
 0.635014825305420E-001
 0.206237596673997E-001
 0.785504342008367E-001
 0.100000000000000E-011
 0.100000000000000E-011
 0.100000000000000E-011
 0.100000000000000E-011
 0.161124197383475E-001
 0.325015332546217E+000
 0.113498836476556E-001
 0.884315634925370E-002
 0.470822656059242E-001
 0.266926207124294E-001
 0.213639041615210E+000
 0.136250018358964E-001
 0.866927058082345E-002
 0.609968420204443E-002
 0.110952455311227E+000
 0.337072265185786E-001
 0.517236783723350E-002
 0.921800900188838E-001
 0.529221238325846E-002
 0.355777016090193E-001
 0.615116179896755E-006
 0.125295387381053E-005
 0.138237883526115E-005
 0.147680026443096E-005
 0.330444607377256E-001
 0.171452692505100E-001
 0.862891712274630E+000
 0.104438195157328E+000
 0.801644404881751E+000
 0.282818494578073E+000
 0.197685745360218E-001
 0.666073248086507E+000
 0.572691071178174E-004
 0.314060645320893E-003
 0.134700692125739E+001
 0.219146259676907E-001
 0.179077359839816E-003
 0.656599548252000E-001
 0.282676440281941E+000
 0.441848729894851E-001
 0.195048459192243E-001
 0.784783119290348E-001
 0.722507260339057E+000
 0.364139501298454E-001
 0.144600577679251E-004
 0.576479328129970E-001
 0.672029414083879E-001
 0.172545671287803E-001
 0.106337243967679E-001
 0.148783018073159E+001
 0.918707389048788E+000
 0.158459367296830E+001
 0.191973743026976E+001
 0.117384863510732E-001
 0.231045445225462E+001
 0.233898580231979E+001
 0.377573723832673E+000
 0.362492877226438E-001
 0.239517524155745E+000
 0.291064522535015E+000
 0.516520015799586E-002
 0.169717638068079E+000
 0.604712645346105E-002
 0.362880329400644E-001
 0.627398010235091E-006
 0.173732053553921E-005
 0.244546818851265E+000
 0.615435965723528E-006
 0.916423525893302E-010
 0.824821965357480E-010
 0.828928948428178E-009
 0.935338158739651E-010
 0.100000000000000E-011
 0.100000000000000E-011
 0.100000000000000E-011
 0.100000000000000E-011
 0.100000000000000E-011
 0.100000000000000E-011
 0.100000000000000E-011
 0.100000000000000E-011
 0.143565733524509E-001
 0.179269098269256E-001
 0.617160729311396E-005
 0.119964402835258E-001
 0.663086997236425E+000
 0.200682107391480E+000
 0.152364548511226E+000
 0.190174491958572E+000
 0.238285008569664E-005
 0.892692168352185E+000
 0.331143596538106E-001
 0.104456287314593E+000
 0.609844307839820E+000
 0.151726209010731E+001
 0.348477892786363E+000
 0.703196054202970E+000
 0.227268518263219E-002
 0.791483951249485E-002
 0.305211302001271E-001
 0.996369098195926E-002
 0.137990055395597E+001
 0.642125209640537E-001
 0.157830337474988E-001
 0.249036717173914E+000
 0.355701397123485E+001
 0.159146260420816E-006
 0.334227808779750E+001
 0.456627167937347E+001
 0.674047766496273E-007
 0.571927823220874E-009
 0.384781845149312E-009
 0.481295437778294E-009
 0.229649409917789E+001
 0.152047985531564E-004
 0.520640358808810E-006
 0.771819575236000E-006
 0.683767370612218E-009
 0.380492942397019E-009
 0.822912138215931E-010
 0.429342986025485E-009
 0.423320903544852E-010
 0.380212172854822E-009
 0.633474623516318E-010
 0.642924754117231E-010
 0.101759636508153E-006
 0.304030161349669E-006
 0.100207162633258E-007
 0.219903009783877E-006
 0.225797373509311E-005
 0.998513107130025E-001
 0.349808113763761E-005
 0.723508086995780E-005
 0.107858121998296E-001
 0.831488193481025E-002
 0.993750966162695E+000
 0.131394690390569E+000
 0.110750128255594E-005
 0.869740046613967E-006
 0.569127791656130E-006
 0.836102233966690E-006
 0.186007431376230E+000
 0.313690754087670E-004
 0.101698070185324E-004
 0.115300132412623E-004
 0.208781041829431E-003
 0.192363408944985E+001
 0.413715376518400E-005
 0.578644073394819E-005
 0.322269556018292E-006
 0.411737487996140E+001
 0.316382432453442E+001
 0.438559268982637E+001
 0.160734122757868E-006
 0.112992228579849E-007
 0.110357819564860E-007
 0.901272719151520E-008
 0.478819206455332E-007
 0.158287564630946E-007
 0.748651323658181E-006
 0.253926765375911E-007
 0.309996909567065E-006
 0.103161361667330E-006
 0.985226877795096E-008
 0.207183069530627E-006
 0.391626843198918E-006
 0.450210495199239E-006
 0.443581552181438E+001
 0.196583565231956E-006
 0.100000000000000E-011
 0.100000000000000E-011
 0.151870314131124E-011
 0.100000000000000E-011
 0.594793052561550E-011
 0.986051671614821E-011
 0.132139387030101E-010
 0.930032499744227E-011
 0.346486382715486E-011
 0.522193794396947E-011
 0.477441938861330E-011
 0.447390174745463E-011
 0.488926388851614E-011
 0.336799275788398E-011
 0.359626568965542E-011
 0.376062597277529E-011
 0.130601154491290E-009
 0.104417073435604E-009
 0.208005945504648E-010
 0.112216404010063E-009
 0.200499668377736E-010
 0.141920285735461E-009
 0.302798085414129E-010
 0.310033116996530E-010
 0.441279172681686E-011
 0.546515502778107E-011
 0.376130217503144E-011
 0.448693780155093E-011
 0.412930641651829E-010
 0.268290967149689E-009
 0.401178800260173E-009
 0.259246243884351E-009
 0.122383190113807E-011
 0.110278837158685E-011
 0.192099722610536E-011
 0.134399470770797E-011
 0.172296131503178E+000
 0.616030523556768E-001
 0.204555803844389E+000
 0.136172239183037E+000
 0.378504640923118E-011
 0.695098638038101E-011
 0.462032069451924E-011
 0.478270108416744E-011
 0.100000000000000E-011
 0.100000000000000E-011
 0.100000000000000E-011
 0.100000000000000E-011
 0.264340756290716E-009
 0.221790191886823E-010
 0.977227604067463E-010
 0.416863422797172E-010
 0.290668805540853E-011
 0.355047152688949E-011
 0.244200771455404E-011
 0.296033312513788E-011
 0.738320905991784E-011
 0.750309851965748E-011
 0.398846899521824E-011
 0.659759326473771E-011
 0.195705886876088E-010
 0.111814670882845E-009
 0.176882654267711E-010
 0.194487534315388E-010
 0.580657136081941E-002
 0.554358685984166E-001
 0.716533343085487E-002
 0.330812773060359E-001
 0.360974195526336E+000
 0.257578190464876E+001
 0.794238521703094E+000
 0.114465912758824E+001
 0.226248281593189E-001
 0.307120201024595E+000
 0.439263575765603E+000
 0.392865233924539E+000
 0.145471132953897E-011
 0.218081895317685E-011
 0.198104540812769E-011
 0.175955281921918E-011
 0.633697720196993E-011
 0.339929309724781E-011
 0.303377650797675E-011
 0.374911896750844E-011
 0.668660057958008E-011
 0.295256577884900E-011
 0.284299011001194E-011
 0.355170658530015E-011
 0.162367562827630E-009
 0.237089410592583E-010
 0.158788768394159E-009
 0.124873001700062E-009
 0.845059217777470E-001
 0.428215947740425E-003
 0.437194585365134E-002
 0.153487225763214E-001
 0.716479523547965E+000
 0.458929403173237E-001
 0.383852169402637E+000
 0.719783240375768E+000
 0.207541438594097E+000
 0.490582046879289E+000
 0.403931037614753E+000
 0.631821238590911E+000
 0.100000000000000E-011
 0.100000000000000E-011
 0.100000000000000E-011
 0.100000000000000E-011
 0.100000000000000E-011
 0.100000000000000E-011
 0.206744913695853E-011
 0.100000000000000E-011
 0.158063412549434E-001
 0.164995768111081E-001
 0.227115567661602E-001
 0.146500961288858E-003
 0.203998453765083E-001
 0.141026097567806E-001
 0.130985216493597E-001
 0.145507611047667E-002
 0.163754495220153E+000
 0.379864647952219E-001
 0.578588009718648E-001
 0.980728471513921E-001
 0.983694674667637E-002
 0.447990441824169E-002
 0.386657594567185E-001
 0.650074431294692E-001
 0.114431986262504E-001
 0.553782672260857E-001
 0.628916212455682E+000
 0.140682162037770E+000
 0.320629865197831E-001
 0.208997289118171E+000
 0.654754959632957E-002
 0.623738240396055E-001
 0.151957773703081E+000
 0.687463614670434E-001
 0.419670191617691E-001
 0.690617712100178E-001
 0.103686236769562E-001
 0.986799478272605E-001
 0.278468293761632E+000
 0.169688752149890E-001
 0.665474625651873E-002
 0.561508689732231E+000
 0.649376171867215E+000
 0.112177891393573E+001
 0.113561667422122E+000
 0.559598336218921E-005
 0.214723764377245E+000
 0.125041300369065E+000
 0.425365608252861E-001
 0.218459867956343E+000
 0.206302021587660E-001
 0.921466075907887E-001
 0.250856155295149E-011
 0.550763094804592E-011
 0.134199245074224E-011
 0.276598084726379E-011
 0.672052719478877E-007
 0.345852207189065E-007
 0.640162457814804E-009
 0.607765820492240E-007
 0.269867247906673E-002
 0.186393801415270E-002
 0.266676737183874E-001
 0.976824247219507E-002
 0.157307051184748E-001
 0.403680281191202E-001
 0.169472857890525E-001
 0.231879292689239E-004
 0.316951680378413E-011
 0.277601501949848E-011
 0.319111960510942E-011
 0.305387775143663E-011
 0.348523312515986E-011
 0.325134550413426E-011
 0.270780585256260E-011
 0.306467965392857E-011
 0.711071842236602E-003
 0.101065466931088E+000