# vtk DataFile Version 3.0
Unstructured Grid
ASCII
DATASET UNSTRUCTURED_GRID
FIELD FieldData 1
TIME 1 1 float
  0.000000E+00
POINTS         1472 double
 0.327403958460176E+000 0.500326537592762E+000 0.000000000000000E+000
 0.330716785824003E+000 0.521433007477216E+000 0.000000000000000E+000
 0.310269483944816E+000 0.513088499793316E+000 0.000000000000000E+000
 0.322796742742998E+000 0.511616014954431E+000 0.000000000000000E+000
 0.424334737710212E+000 0.834701605003718E+000 0.000000000000000E+000
 0.443572276651021E+000 0.818954899772293E+000 0.000000000000000E+000
 0.448375253667714E+000 0.844447106971397E+000 0.000000000000000E+000
 0.438760756009649E+000 0.832701203915803E+000 0.000000000000000E+000
 0.517604179674180E+000 0.710476267419082E+000 0.000000000000000E+000
 0.514987347628020E+000 0.689355541845584E+000 0.000000000000000E+000
 0.533402108142113E+000 0.700024630556312E+000 0.000000000000000E+000
 0.521997878481438E+000 0.699952146606993E+000 0.000000000000000E+000
 0.630378557075232E+000 0.484375000000000E+000 0.000000000000000E+000
 0.630378557075232E+000 0.453125000000000E+000 0.000000000000000E+000
 0.646514228300930E+000 0.468750000000000E+000 0.000000000000000E+000
 0.635757114150465E+000 0.468750000000000E+000 0.000000000000000E+000
 0.713111378611360E+000 0.895241688032400E+000 0.000000000000000E+000
 0.688821582633598E+000 0.888464868777621E+000 0.000000000000000E+000
 0.704253753217035E+000 0.880070880550922E+000 0.000000000000000E+000
 0.702062238153998E+000 0.887925812453648E+000 0.000000000000000E+000
 0.410439533961570E+000 0.800235491911684E+000 0.000000000000000E+000
 0.434088346724484E+000 0.807901996007365E+000 0.000000000000000E+000
 0.414850807783676E+000 0.823648701238790E+000 0.000000000000000E+000
 0.419792896156577E+000 0.810595396385946E+000 0.000000000000000E+000
 0.367259713837266E+000 0.585937500000000E+000 0.000000000000000E+000
 0.344038855349066E+000 0.578125000000000E+000 0.000000000000000E+000
 0.367259713837266E+000 0.570312500000000E+000 0.000000000000000E+000
 0.359519427674533E+000 0.578125000000000E+000 0.000000000000000E+000
 0.335803559634134E+000 0.383542776348782E+000 0.000000000000000E+000
 0.336532598712019E+000 0.357683733574730E+000 0.000000000000000E+000
 0.359467231669231E+000 0.373245301984702E+000 0.000000000000000E+000
 0.343934463338461E+000 0.371490603969405E+000 0.000000000000000E+000
 0.282487936406968E+000 0.807459263208752E+000 0.000000000000000E+000
 0.305575998249685E+000 0.804456393897098E+000 0.000000000000000E+000
 0.295918802660261E+000 0.825641633973708E+000 0.000000000000000E+000
 0.294660912438971E+000 0.812519097026519E+000 0.000000000000000E+000
 0.175282215461891E+000 0.800806334698565E+000 0.000000000000000E+000
 0.189500824919726E+000 0.816116689644714E+000 0.000000000000000E+000
 0.177344931931150E+000 0.812339643222100E+000 0.000000000000000E+000
 0.170154373811013E+000 0.781206741260999E+000 0.000000000000000E+000
 0.177294624314697E+000 0.761570228173484E+000 0.000000000000000E+000
 0.203125000000000E+000 0.755008498579984E+000 0.000000000000000E+000
 0.234375000000000E+000 0.755008498579984E+000 0.000000000000000E+000
 0.218750000000000E+000 0.770033994319935E+000 0.000000000000000E+000
 0.218750000000000E+000 0.760016997159967E+000 0.000000000000000E+000
 0.171875000000000E+000 0.744791666666667E+000 0.000000000000000E+000
 0.247008086556606E+000 0.825209785421116E+000 0.000000000000000E+000
 0.262655960020354E+000 0.814883810853807E+000 0.000000000000000E+000
 0.254996959665743E+000 0.827368192316630E+000 0.000000000000000E+000
 0.205953249832105E+000 0.776579498682440E+000 0.000000000000000E+000
 0.183187999328421E+000 0.781190516030003E+000 0.000000000000000E+000
 0.190328249832105E+000 0.761554002942489E+000 0.000000000000000E+000
 0.193156499664211E+000 0.773108005884977E+000 0.000000000000000E+000
 0.169258041149259E+000 0.755024723810979E+000 0.000000000000000E+000
 0.230722362303739E+000 0.790942462306033E+000 0.000000000000000E+000
 0.256504842491222E+000 0.802116681261574E+000 0.000000000000000E+000
 0.240856969027474E+000 0.812442655828883E+000 0.000000000000000E+000
 0.242694724607478E+000 0.801833933132163E+000 0.000000000000000E+000
 0.342347019559578E+000 0.782845565479912E+000 0.000000000000000E+000
 0.351767536208115E+000 0.806484945267580E+000 0.000000000000000E+000
 0.328717561589778E+000 0.795702316610104E+000 0.000000000000000E+000
 0.340944039119157E+000 0.795010942452532E+000 0.000000000000000E+000
 0.232552493395827E+000 0.778767232551766E+000 0.000000000000000E+000
 0.248177493395827E+000 0.763741736811814E+000 0.000000000000000E+000
 0.258334973583310E+000 0.789941451507307E+000 0.000000000000000E+000
 0.246354986791655E+000 0.777483473623629E+000 0.000000000000000E+000
 0.185547452313138E+000 0.792839472041225E+000 0.000000000000000E+000
 0.208312702816822E+000 0.788228454693661E+000 0.000000000000000E+000
 0.199766061770974E+000 0.808149826987374E+000 0.000000000000000E+000
 0.197875405633645E+000 0.796405917907420E+000 0.000000000000000E+000
 0.335481763860092E+000 0.828779182834090E+000 0.000000000000000E+000
 0.327001247664906E+000 0.807185720948649E+000 0.000000000000000E+000
 0.350051222283243E+000 0.817968349606125E+000 0.000000000000000E+000
 0.337511411269414E+000 0.817977751129622E+000 0.000000000000000E+000
 0.238044756321261E+000 0.834156615930811E+000 0.000000000000000E+000
 0.219279321892629E+000 0.793858180085423E+000 0.000000000000000E+000
 0.229413928616364E+000 0.815358373608273E+000 0.000000000000000E+000
 0.210732680846780E+000 0.813779552379136E+000 0.000000000000000E+000
 0.219808643785257E+000 0.807665368690944E+000 0.000000000000000E+000
 0.268751640249977E+000 0.787936663740675E+000 0.000000000000000E+000
 0.258594160062494E+000 0.761736949045183E+000 0.000000000000000E+000
 0.274219160062494E+000 0.770748081485238E+000 0.000000000000000E+000
 0.267188320124988E+000 0.773473898090365E+000 0.000000000000000E+000
 0.316910607227136E+000 0.583265612921431E+000 0.000000000000000E+000
 0.298039920960361E+000 0.598890612921431E+000 0.000000000000000E+000
 0.300838266104520E+000 0.583062451685723E+000 0.000000000000000E+000
 0.305262931430672E+000 0.588406225842861E+000 0.000000000000000E+000
 0.272348873259367E+000 0.817502609586356E+000 0.000000000000000E+000
 0.285779739512660E+000 0.835684980351312E+000 0.000000000000000E+000
 0.274382786143769E+000 0.832605789781728E+000 0.000000000000000E+000
 0.279833487593376E+000 0.795668945535288E+000 0.000000000000000E+000
 0.285301007405894E+000 0.778480363279850E+000 0.000000000000000E+000
 0.302921549436093E+000 0.792666076223634E+000 0.000000000000000E+000
 0.289352014811788E+000 0.788938461679591E+000 0.000000000000000E+000
 0.318373514010066E+000 0.761178979879161E+000 0.000000000000000E+000
 0.333998514010066E+000 0.771519074132807E+000 0.000000000000000E+000
 0.320369056040266E+000 0.784375825263000E+000 0.000000000000000E+000
 0.324247028020133E+000 0.772357959758323E+000 0.000000000000000E+000
 0.358514361961094E+000 0.770432723577764E+000 0.000000000000000E+000
 0.374139361961094E+000 0.760092629324119E+000 0.000000000000000E+000
 0.387182447844375E+000 0.780030423042829E+000 0.000000000000000E+000
 0.373278723922188E+000 0.770185258648237E+000 0.000000000000000E+000
 0.328125000000000E+000 0.753446698084548E+000 0.000000000000000E+000
 0.359375000000000E+000 0.753446698084548E+000 0.000000000000000E+000
 0.343750000000000E+000 0.763786792338194E+000 0.000000000000000E+000
 0.343750000000000E+000 0.756893396169097E+000 0.000000000000000E+000
 0.365866717492475E+000 0.805398594712537E+000 0.000000000000000E+000
 0.356446200843939E+000 0.781759214924869E+000 0.000000000000000E+000
 0.385114286727220E+000 0.791356914389934E+000 0.000000000000000E+000
 0.369142401687878E+000 0.792838241342447E+000 0.000000000000000E+000
 0.400552013784456E+000 0.825773759981097E+000 0.000000000000000E+000
 0.376893170727604E+000 0.816402230976595E+000 0.000000000000000E+000
 0.396140739962350E+000 0.802360550653991E+000 0.000000000000000E+000
 0.391195308158137E+000 0.814845513870561E+000 0.000000000000000E+000
 0.403519356084681E+000 0.848205926323890E+000 0.000000000000000E+000
 0.371935791571904E+000 0.828917355814994E+000 0.000000000000000E+000
 0.395594634628756E+000 0.838288884819497E+000 0.000000000000000E+000
 0.381280549846735E+000 0.839875763547360E+000 0.000000000000000E+000
 0.402774429392306E+000 0.760300710434816E+000 0.000000000000000E+000
 0.398247464702178E+000 0.777497419757092E+000 0.000000000000000E+000
 0.385204378818897E+000 0.757559626038381E+000 0.000000000000000E+000
 0.395408757637794E+000 0.765119252076763E+000 0.000000000000000E+000
 0.445053112534658E+000 0.790694832884304E+000 0.000000000000000E+000
 0.425931264461871E+000 0.765831619466346E+000 0.000000000000000E+000
 0.454182906334243E+000 0.772016758068821E+000 0.000000000000000E+000
 0.441722427776924E+000 0.776181070139823E+000 0.000000000000000E+000
 0.449658632145337E+000 0.865616301225001E+000 0.000000000000000E+000
 0.316098857595653E+000 0.810653258088361E+000 0.000000000000000E+000
 0.324579373790839E+000 0.832246719973802E+000 0.000000000000000E+000
 0.306441662006228E+000 0.831838498164971E+000 0.000000000000000E+000
 0.315706631130907E+000 0.824912825409044E+000 0.000000000000000E+000
 0.363568456179546E+000 0.852900818082076E+000 0.000000000000000E+000
 0.344623565988752E+000 0.840207957117447E+000 0.000000000000000E+000
 0.359193024411903E+000 0.829397123889482E+000 0.000000000000000E+000
 0.355795015526734E+000 0.840835299696335E+000 0.000000000000000E+000
 0.554970618051020E+000 0.560396480484634E+000 0.000000000000000E+000
 0.522342053385280E+000 0.552211380796809E+000 0.000000000000000E+000
 0.554364814642349E+000 0.542151011214598E+000 0.000000000000000E+000
 0.543892495359550E+000 0.551586290832014E+000 0.000000000000000E+000
 0.612782254074659E+000 0.746618588772815E+000 0.000000000000000E+000
[...]
POINT_DATA         1472
SCALARS opt_pot double 1
LOOKUP_TABLE default
 0.104233803274504E+001
 0.954261553759979E+000
 0.102550460877706E+001
 0.104738871693579E+001
 0.166760831288844E+000
 0.158377323289985E+000
 0.577586249793272E-001
 0.156468774670533E+000
 0.112384185616205E+000
 0.353410632794423E-001
-0.236375440079236E-001
 0.143822433114235E-001
 0.456831304645802E+000
 0.433210615936460E+000
 0.576798482258044E+000
 0.514333260273563E+000
-0.698290525817181E+000
-0.639999543953113E+000
-0.783817225630887E+000
-0.674638851126220E+000
 0.314582791224600E+000
 0.211762883476567E+000
 0.252988256855031E+000
 0.262423772928184E+000
 0.471420441839229E+000
 0.553063139475134E+000
 0.745582662019251E+000
 0.438164322508650E+000
 0.670446293026435E+000
 0.569132164823810E+000
 0.495810314373728E+000
 0.596137378704595E+000
 0.510958618343674E+000
 0.660229048997942E+000
 0.367956418111568E+000
 0.456495436412770E+000
 0.832726357049673E+000
 0.753074311186547E+000
 0.834216319710213E+000
 0.829054953294915E+000
 0.816060254128353E+000
 0.107855784853593E+001
 0.920411767837654E+000
 0.107673874123091E+001
 0.103240327343440E+001
 0.113894959707369E+001
 0.504722829341011E+000
 0.454545221156761E+000
 0.481327501059928E+000
 0.811934860128561E+000
 0.775937060827493E+000
 0.882038702944028E+000
 0.729332697204360E+000
 0.129452844023062E+001
 0.727311075898028E+000
 0.593720926054656E+000
 0.509952542458341E+000
 0.606597785473137E+000
 0.642318324751998E+000
 0.505545550771863E+000
 0.660439120644622E+000
 0.613177044108506E+000
 0.922745207727353E+000
 0.930011740673915E+000
 0.827033386838536E+000
 0.977430042967245E+000
 0.706062964668458E+000
 0.725643795989588E+000
 0.669788905273645E+000
 0.641133789514566E+000
 0.269049999705967E+000
 0.588941591415731E+000
 0.398565767955482E+000
 0.442351565752910E+000
 0.518163959204766E+000
 0.764310520902302E+000
 0.562145065364501E+000
 0.645005695283697E+000
 0.568359075131492E+000
 0.888019585597507E+000
 0.893559155958827E+000
 0.884434131571523E+000
 0.913652438160576E+000
 0.820535589931813E+000
 0.998332593339786E+000
 0.921994623164070E+000
 0.904598763740819E+000
 0.429688470148371E+000
 0.392741311387922E+000
 0.426030750413558E+000
 0.752568271190929E+000
 0.848416885488595E+000
 0.757577168233971E+000
 0.810618525150597E+000
 0.686268467955870E+000
 0.648523484595626E+000
 0.722090887628208E+000
 0.683680177601178E+000
 0.556015943991011E+000
 0.453257517064489E+000
 0.460693966890203E+000
 0.480923658019896E+000
 0.496005333907897E+000
 0.354927132535303E+000
 0.588823985089647E+000
 0.544425297886126E+000
 0.454417989104247E+000
 0.585946312698657E+000
 0.429165865339213E+000
 0.495331148492637E+000
 0.273687328965899E+000
 0.381518132648679E+000
 0.367294631333280E+000
 0.348103720428847E+000
 0.910179097920634E-001
 0.203395543135136E+000
 0.144706855526252E+000
 0.149806505330364E+000
 0.235300600615481E+000
 0.390029383819592E+000
 0.283715633227700E+000
 0.361336661778722E+000
 0.221321144206329E+000
 0.170480246515613E+000
 0.917403961160941E-001
 0.161694983553874E+000
-0.208549328591900E-001
 0.563983255836484E+000
 0.289698279200012E+000
 0.334351383491611E+000
 0.318933532569989E+000
 0.191529089078245E+000
 0.237105447064111E+000
 0.210328956103377E+000
 0.209886413841940E+000
 0.187735339504184E+000
 0.507351260172362E+000
 0.259122939606388E-001
 0.973046681745549E-001
-0.311802994366613E+000
-0.172650932362785E+000
-0.228633916289620E+000
-0.272343623414614E+000
 0.135497499629011E+000
-0.127763690610548E+000
-0.329094328521196E-001
-0.154032597106713E-001
-0.560110947472237E-001
 0.243510112536880E+000
 0.185439356975879E+000
 0.237841047243980E+000
 0.207168878261765E+000
 0.289910239168829E+000
 0.375403966644034E+000
 0.277159288671265E+000
 0.312109316907446E+000
 0.106903647717758E+000
 0.360840199475639E-001
 0.357319830201418E-001
 0.700026563947687E-001
 0.446891071907900E+000
 0.592237437864178E+000
 0.658537232360502E+000
 0.560544721146773E+000
 0.512365794363985E+000
 0.498695171367212E+000
 0.484449623382246E+000
 0.849023185827582E-001
 0.197215498600579E+000
 0.481465070127091E-001
 0.132468672938931E+000
 0.561949289998666E+000
 0.448251972313600E+000
 0.476462495958777E+000
 0.486017706652815E+000
-0.160523218282131E+000
-0.148885977654198E+000
-0.260727591121658E+000
-0.205681410242438E+000
 0.841062830542429E-002
-0.978747216901599E-001
-0.545474098732868E-001
-0.201328350648673E-001
 0.296824469724973E-001
 0.122363893975390E+000
 0.927974539036529E-001
 0.753876406394777E-001
-0.549858366268347E-001
-0.826198900905072E-001
-0.135268178741110E-001
 0.365298064213513E-001
-0.238366138221490E-001
-0.474802576020619E-001
-0.125174147681220E+000
-0.150487415618791E+000
-0.997882629856733E-001
-0.281390244850610E+000
-0.308029594391903E+000
-0.281628585571941E+000
-0.385017840967725E+000
-0.247621722270855E+000
-0.316276439067232E+000
-0.276475512724412E+000
-0.935215683455113E-001
-0.125381128874607E+000
-0.172817672609366E+000
-0.873532836414783E-001
-0.197128843492790E+000
-0.173670179189283E+000
-0.236540573285091E+000
-0.197074091891059E+000
-0.113096081632817E+000
-0.224587161859893E+000
-0.210531880726325E+000
-0.180404983390450E+000
-0.270789877170695E+000
-0.303151021139468E+000
-0.356595052639730E+000
-0.333134642772411E+000
-0.101558722590331E+001
-0.866165682147711E-001
-0.155914557830303E+000
-0.114964980121678E+000
-0.591523175668110E+000
-0.867488582083290E+000
-0.665178365758501E+000
-0.695361777896961E+000
-0.308551351354993E+000
-0.194102967750053E+000
-0.391729972643121E+000
-0.300217545247709E+000
-0.253022386287825E+000
-0.209251429249076E+000
-0.232273130546171E+000
-0.183715586319192E+000
-0.816554399184215E-002
 0.868521393617778E-001
 0.314218809424780E-001
 0.778741729792898E+000
 0.637371529651260E+000
 0.815276364540595E+000
 0.730467327980918E+000
 0.759187927264669E+000
 0.805697221444129E+000
 0.722702313925447E+000
 0.756070252436992E+000
-0.686257286689442E-001
-0.339404925026501E-001
 0.204559625647458E-001
-0.298256994012285E-001
-0.762827664130676E-001
-0.196409371832718E+000
 0.892260070052435E-001
 0.207302236305820E+000
 0.249480937932086E+000
 0.180975550036732E+000
-0.482840847077540E+000
-0.419273431209876E+000
-0.431217742693255E+000
-0.465018651072461E+000
-0.170469780673942E+000
-0.248151257339832E+000
-0.200317202929617E+000
-0.217367635684320E+000
 0.964802665024707E-001
 0.236031547658770E+000
 0.153377894588029E+000
 0.162677155460474E+000
 0.877362781074201E+000
 0.774484240182728E+000
 0.808595315293562E+000
 0.834854506103882E+000
 0.800961464808971E-001
-0.159997053310554E-001
 0.149268683222643E-001
 0.766406536606297E+000
 0.737324761609590E+000
 0.771454980241750E+000
 0.745497417608469E+000
 0.540927124570599E-001
-0.690969563476966E-001
-0.856217991308537E-002
-0.304809735900057E-001
-0.929158232839185E-001
-0.814701803846056E-001
-0.173409239649356E+000
-0.119848186959633E+000
-0.114874551799991E+000
-0.320323907099459E-001
-0.205804577414977E+000
-0.865423919628369E-001
-0.943779638228797E-001
-0.929481955008231E-001
-0.153307312180959E+000
-0.120851614105236E+000
 0.945438568018758E+000
-0.850020840348681E-001
-0.161461936063954E+000
 0.774765921560627E-002
-0.126923480961444E+000
 0.103313248562554E+000
 0.170192914867446E+000
 0.172298842572217E+000
 0.124304385300501E+000
 0.511406346088843E-001
 0.132059677312856E+000
-0.505961497627249E-001
 0.922903006523076E-001
 0.259181805451151E+000
 0.228679476736928E+000
 0.288271000533564E+000
 0.238909658415969E+000
 0.457986321824687E-002
-0.410906594022489E-001
 0.633868626966167E-002
-0.128131111017559E-001
 0.368381691097202E+000
 0.609291071815263E+000
 0.438334908721417E+000
 0.464337442024294E+000
 0.314836698469791E+000
 0.224862416807861E+000
 0.258735061716364E+000
 0.278077837881650E+000
 0.101256386480611E+000
 0.165655862874464E+000
 0.532695207089258E-001
 0.799137808631498E-001
 0.361709795950258E+000
 0.462766384044335E+000
 0.394443444295701E+000
 0.432780882957710E+000
 0.256506802972110E+000
 0.130095860598213E+000
 0.338057232426380E+000
 0.225516100977837E+000
 0.195262379090084E+000
 0.104561507511995E+000
 0.177480839619507E+000
 0.147510822767841E+000
 0.232010877792420E+000
 0.330171747465246E+000
 0.403653944339985E+000
 0.315593646802292E+000
 0.280937005358408E+000
 0.298545324815888E+000
 0.493812886522168E+000
 0.376571118480403E+000
 0.183749134091815E+000
 0.263874556718422E+000
 0.341689191865584E+000
 0.233346180623047E+000
 0.726888631011878E+000
 0.838974938325021E+000
 0.688688779622091E+000
 0.758238192979565E+000
 0.652969582105055E+000
 0.715019659977095E+000
 0.697226487645869E+000
 0.474248746551491E+000
 0.607172381384715E+000
 0.321734546859941E+000
 0.551695221433102E+000
 0.315711353188476E+000
 0.396611061550893E+000
 0.345497748663427E+000
 0.363415155112454E+000
 0.679260513353477E+000
 0.746359225317937E+000
 0.824207970797989E+000
 0.770870356900073E+000
 0.195326037205767E+000
 0.283609062995208E+000
 0.151094464154334E+000
 0.177592781494203E+000
-0.262439023884527E+000
-0.332873200465395E+000
-0.298552037650390E+000
-0.310030521253175E+000
 0.230462521958541E-001
-0.482895790480553E-001
-0.629089677222631E-001
-0.381119955829607E-001
 0.183275247170672E+000
 0.822267349873616E-001
 0.334068687554266E-001
 0.109965125245465E+000
-0.233582485324559E-001
 0.543894925682875E-001
 0.124949012874073E+000
 0.257717350048831E-001
 0.224808288081271E+000
 0.378437717230426E+000
 0.413176447750579E+000
 0.342824008334463E+000
 0.488774793340970E+000
 0.733896303661683E+000
 0.651573022806302E+000
 0.650488781986178E+000
 0.644176105206728E+000
 0.389280039986864E+000
 0.705494371024277E+000
 0.675467261254219E+000
 0.478313107753079E+000
 0.512626564547910E+000
 0.585322811437217E+000
 0.517653977404682E+000
 0.421893835352310E+000
 0.656185769185636E+000
 0.759054279554571E+000
 0.721885804752057E+000
 0.831285408143013E-001
 0.118832661087618E+000
 0.259262418172338E-001
 0.913703204678410E-001
-0.221515932940237E-001
 0.318140693899643E-001
-0.221000435683968E-001
-0.147196731672696E-002
 0.330220585896148E-001
 0.925095471663468E-001
 0.972427520116152E-001
 0.504342503360377E-001
 0.598892057924812E+000
 0.550177360495148E+000
 0.704076650338754E+000
 0.611429316828089E+000
 0.410841794103983E+000
 0.584942636422694E+000
 0.671118453379877E+000
 0.484097810170626E+000
 0.324052111207661E+000
 0.626569006037335E+000
 0.534476351615487E+000
 0.527344930289815E+000
 0.848132485494736E+000
 0.931796071467993E+000
 0.982002127654871E+000
 0.939363231055925E+000
 0.127884076488663E+001
 0.109436676799207E+001
 0.989326828793281E+000
 0.109251305169311E+001
 0.743321864640217E+000
 0.644643399435466E+000
 0.872892517813726E+000
 0.772268810034804E+000
 0.100046032083346E+001
 0.123125898997727E+001
 0.917148663803179E+000
 0.105076682401788E+001
 0.780567816883229E+000
 0.491266087511108E+000
 0.878781070060293E+000
 0.830248241701863E+000
 0.857281890263777E+000
 0.824717686947357E+000
 0.848579996626017E+000
 0.868825482656866E+000
 0.625985442485576E+000
 0.551909289599844E+000
 0.597523574565755E+000
 0.576812935734757E+000
 0.390057439167779E+000
 0.256046833303900E+000
 0.206677265841058E+000
 0.298707524163245E+000
 0.368165229055182E+000
 0.479847984878333E+000
 0.526957302315291E+000
 0.441385924988776E+000
 0.598109926506169E-001
 0.291856839508429E+000
 0.137780567179980E-001
-0.456915631764589E-001
 0.458573794561535E+000
 0.370502750351528E+000
 0.530036067120693E+000
 0.466723175372342E+000
 0.594018784764943E+000
 0.528472802601873E+000
 0.551688657260969E+000
 0.565945187959574E+000
 0.993130626149336E+000
 0.103147953952540E+001
 0.955953719808738E+000
 0.992931771537547E+000
 0.840989445298040E+000
 0.942950887963556E+000
 0.913432970361130E+000
 0.896362774188091E+000
 0.980281886494499E+000
 0.727958224337678E+000
 0.844063745509281E+000
 0.786527150867338E+000
 0.119823174512052E+001
 0.822338839260897E+000
 0.888192317409966E+000
 0.897706981402758E+000
 0.891183515542722E+000
 0.590191249878464E+000
 0.699073531625779E+000
 0.530338709911617E+000
 0.280091936761753E+000
 0.225381658065162E+000
 0.389421792586031E+000
 0.275575875386120E+000
 0.205290596535894E+000
-0.113322126331000E+000
-0.229444565042334E-001
-0.827612693889146E-001
 0.631300310251026E+000
 0.576717779179702E+000
 0.615525970780786E+000
 0.121437740791405E+001
 0.111757426801543E+001
 0.116607655945464E+001
 0.973837183450679E+000
 0.100239702742339E+001
 0.969269313249521E+000
 0.122197229819618E+001
 0.123180695400179E+001
 0.120830883651603E+001
 0.106811748797584E+001
 0.111448932754031E+001
 0.110044093451462E+001
 0.120459472336972E+001
 0.102274765675876E+001
 0.108539465587418E+001
 0.113682211930748E+001
 0.920255401132967E+000
 0.763609642359025E+000
 0.662113095596237E+000
 0.573508862632981E+000
 0.101438358571201E+001
 0.951946208223633E+000
 0.613026941933117E+000
 0.978861292395235E+000
-0.437975083566365E+000
-0.437465256188732E+000
-0.681576496004172E+000
-0.502342692830415E+000
 0.924667777790793E+000
 0.111504547010393E+001
 0.663271780812519E+000
 0.852793460399086E+000
 0.657358512624684E+000
 0.723385867959667E+000
 0.774455930566710E+000
 0.713909730006374E+000
-0.359056468407999E+000
-0.522698126462779E+000
-0.473976431037952E+000
-0.471712734880085E+000
-0.322279578996471E+000
-0.202963825692033E+000
-0.284023706239442E+000
-0.279806301822875E+000
-0.580836169371492E+000
-0.507876340675414E+000
-0.458825002256543E+000
-0.553864988230887E+000
-0.319546611873724E+000
-0.400409218904963E+000
-0.359541648658777E+000
-0.352634849627900E+000
-0.475071654902712E+000
-0.750747805033907E+000
-0.674807019340197E+000
-0.620890419246679E+000
 0.701676572925410E+000
 0.814624219890645E+000
 0.738787473828207E+000
 0.748609772703868E+000
-0.424376858814296E+000
-0.409024562878448E+000
-0.360107448015983E+000
-0.426989025065314E+000
-0.560658157528213E+000
-0.493521509236290E+000
-0.475163519857949E+000
-0.497134422407954E+000
 0.243367059959891E+000
 0.201757676421644E+000
 0.174823629877815E+000
 0.145720142390643E+000
 0.867167128553577E-001
 0.224607594879000E+000
 0.178814522902769E+000
 0.177727666518471E+000
 0.453330472967692E-001
 0.383077765865539E+000
 0.132079060774219E+000
 0.218308214543768E+000
 0.308057166230770E+000
 0.270527097785197E+000
 0.193019308115566E+000
 0.230070705478302E+000
-0.188435338203784E-001
 0.410063215926832E+000
 0.411674667087938E-001
 0.274406831886733E-001
 0.568217910470665E+000
 0.383052872252128E+000
 0.469606196514778E+000
 0.440237159697331E+000
 0.325620327011515E+000
-0.145377113928417E-001
 0.168372023667232E+000
 0.724058162343805E-001
 0.138126783791993E+001
 0.129682867264458E+001
 0.135832865894446E+001
 0.117814771317310E+001
 0.135840779864883E+001
 0.120048043801534E+001
 0.137970256925812E+001
 0.130090373309046E+001
 0.139119126507601E+001
 0.791247647496988E+000
 0.697287646758986E+000
 0.690370029741485E+000
 0.729458149113435E+000
 0.365269177307862E+000
 0.401817914603751E+000
 0.499921567762944E+000
 0.413483994866754E+000
 0.554643916223334E+000
 0.351363669685191E+000
 0.723316306365757E+000
 0.516165025201719E+000
 0.239323368704613E+000
 0.190924462686999E+000
 0.307001502102239E+000
 0.350169362133954E+000
 0.256332509558865E+000
 0.367629212071005E+000
 0.264575514091327E+000
 0.300142910931693E+000
 0.817189973043258E+000
 0.680047452835343E+000
 0.808250557593341E+000
 0.765249949068893E+000
 0.806537521935460E+000
 0.665843810808206E+000
 0.760105897381375E+000
 0.760261680600463E+000
 0.279447169145361E+000
 0.194930833078421E+000
 0.263691879367049E+000
 0.283549825834270E+000
 0.104402841597489E+000
 0.170262158180382E+000
 0.148062539282369E+000
 0.148771161784977E+000
 0.135765449364274E+001
 0.129291484291121E+001
 0.132637878664085E+001
 0.145021527845244E+001
 0.119012342175692E+001
 0.111714562837291E+001
 0.127456697454547E+001
 0.105034449501648E+001
 0.955405255345689E+000
 0.770995809079479E+000
 0.989055560864054E+000
 0.144584327111499E+001
 0.155342363299513E+001
 0.111447612561744E+001
 0.153896694417928E+001
 0.105633296724294E+001
 0.112238537835140E+001
 0.111814839527296E+001
 0.107205158239880E+001
 0.807018081313480E+000
 0.979586979347031E+000
 0.877367824910911E+000
 0.838477691051677E+000
 0.641420918899778E+000
 0.505623728767668E+000
 0.445392035045909E+000
 0.531691173806439E+000
 0.170476502471414E+000
 0.134305901485109E+000
 0.304795547272892E+000
 0.210092565715263E+000
 0.103597558282180E+001
 0.153231128504292E+001
 0.110187761827923E+001
 0.126583140924381E+001
 0.874037980795832E+000
 0.843391372943244E+000
 0.920737388567304E+000
 0.882122866113809E+000
 0.673405740608527E+000
 0.109048791175459E+001
 0.104943310351208E+001
 0.105487908685711E+001
 0.117059988921481E+001
 0.126578635915616E+001
 0.117975880782644E+001
 0.119770173215195E+001
 0.510945469991250E+000
 0.373624630408294E+000
 0.478244783662623E+000
 0.426524819240783E+000
 0.848837339322067E+000
 0.801586295104669E+000
 0.821755318742371E+000
 0.108431530945092E+001
 0.113525477596675E+001
 0.116897837148681E+001
 0.326930794586464E+000
 0.286343993203313E+000
 0.377466102982738E+000
 0.322434984130793E+000
 0.160128547038191E+000
 0.213469715593414E+000
 0.273674280699023E+000
 0.224279020711953E+000
 0.108817176602343E+000
 0.313495830005907E+000
 0.305920853923112E+000
 0.241916122566804E+000
 0.138611151312856E+000
 0.113006383089272E+000
 0.273290132460008E+000
 0.109292404470198E+000
 0.881323219788707E-001
 0.192716141672637E+000
 0.183488973133539E+000
 0.874272589667553E-001
 0.322971508710103E+000
 0.452429653433039E+000
 0.370032370689743E+000
 0.318960733626546E+000
 0.379643842726107E+000
 0.462178732131201E+000
 0.342727321948158E+000
 0.356053047156512E+000
 0.501321719110434E+000
 0.550098393725045E+000
 0.990732915075580E+000
 0.941684576460838E+000
 0.100201516607329E+001
 0.923642710595797E+000
 0.134088533447274E+001
 0.100234317891588E+001
 0.109872749059704E+001
 0.167411661293250E+001
 0.148689333406367E+001
 0.170111758677278E+001
 0.445438836115140E+000
 0.450561198371385E+000
 0.262562152072935E+000
 0.330577942635417E+000
 0.432112314564663E+000
 0.409793014953457E+000
 0.526590145481880E+000
 0.443122057839322E+000
 0.597350191652188E+000
 0.805521855306749E+000
 0.704949155950765E+000
 0.704942206783257E+000
 0.493096264403680E+000
 0.450869912757611E+000
 0.412826638694217E+000
 0.650495076343378E+000
 0.615614090869648E+000
 0.772900866310771E+000
 0.634448210284880E+000
 0.849896995336139E+000
 0.774464488845963E+000
 0.807779176510695E+000
 0.526650393158733E+000
 0.629294047740917E+000
 0.575176576386634E+000
 0.738276563361946E+000
 0.707144010683728E+000
 0.735589309075032E+000
 0.922807581594542E+000
 0.111981056573587E+001
 0.876101885949110E+000
 0.102527089792998E+001
 0.935941271545814E+000
 0.989305661133831E+000
 0.988327849410133E+000
 0.163478837514961E+001
 0.105002351514122E+001
 0.516007510888116E+000
 0.518684480813012E+000
 0.569819307636052E+000
 0.568363733267481E+000
 0.661996558019602E+000
 0.534232944831323E+000
 0.608772052562812E+000
 0.623535701481448E+000
 0.587923764146158E+000
 0.721385887092081E+000
 0.646821243588112E+000
 0.644858724168221E+000
 0.823221255303692E+000
 0.814584535844848E+000
 0.835065352133048E+000
 0.902617752153387E+000
 0.953460143292400E+000
 0.995099424213621E+000
 0.959563087856980E+000
 0.775881644815163E+000
 0.681464236578884E+000
 0.636625307587202E+000
 0.726974968507217E+000
 0.772381501851020E+000
 0.653103565964018E+000
 0.758462080810730E+000
 0.718568872364725E+000
 0.694469896870706E+000
 0.775932876560235E+000
 0.788542885585886E+000
 0.749708369530956E+000
 0.708232927016474E+000
 0.787083262197154E+000
 0.777354449618823E+000
 0.746185149784443E+000
 0.710297777848143E+000
 0.556313046836104E+000
 0.594632133851124E+000
 0.614586501792397E+000
 0.146875986655553E+001
 0.777165911680068E+000