# vtk DataFile Version 3.0
Unstructured Grid
ASCII
DATASET UNSTRUCTURED_GRID
FIELD FieldData 1
TIME 1 1 float
  0.000000E+00
POINTS         1472 double
 0.327403958460176E+000 0.500326537592762E+000 0.000000000000000E+000
 0.330716785824003E+000 0.521433007477216E+000 0.000000000000000E+000
 0.310269483944816E+000 0.513088499793316E+000 0.000000000000000E+000
 0.322796742742998E+000 0.511616014954431E+000 0.000000000000000E+000
 0.424334737710212E+000 0.834701605003718E+000 0.000000000000000E+000
 0.443572276651021E+000 0.818954899772293E+000 0.000000000000000E+000
 0.448375253667714E+000 0.844447106971397E+000 0.000000000000000E+000
 0.438760756009649E+000 0.832701203915803E+000 0.000000000000000E+000
 0.517604179674180E+000 0.710476267419082E+000 0.000000000000000E+000
 0.514987347628020E+000 0.689355541845584E+000 0.000000000000000E+000
 0.533402108142113E+000 0.700024630556312E+000 0.000000000000000E+000
 0.521997878481438E+000 0.699952146606993E+000 0.000000000000000E+000
 0.630378557075232E+000 0.484375000000000E+000 0.000000000000000E+000
 0.630378557075232E+000 0.453125000000000E+000 0.000000000000000E+000
 0.646514228300930E+000 0.468750000000000E+000 0.000000000000000E+000
 0.635757114150465E+000 0.468750000000000E+000 0.000000000000000E+000
 0.713111378611360E+000 0.895241688032400E+000 0.000000000000000E+000
 0.688821582633598E+000 0.888464868777621E+000 0.000000000000000E+000
 0.704253753217035E+000 0.880070880550922E+000 0.000000000000000E+000
 0.702062238153998E+000 0.887925812453648E+000 0.000000000000000E+000
 0.410439533961570E+000 0.800235491911684E+000 0.000000000000000E+000
 0.434088346724484E+000 0.807901996007365E+000 0.000000000000000E+000
 0.414850807783676E+000 0.823648701238790E+000 0.000000000000000E+000
 0.419792896156577E+000 0.810595396385946E+000 0.000000000000000E+000
 0.367259713837266E+000 0.585937500000000E+000 0.000000000000000E+000
 0.344038855349066E+000 0.578125000000000E+000 0.000000000000000E+000
 0.367259713837266E+000 0.570312500000000E+000 0.000000000000000E+000
 0.359519427674533E+000 0.578125000000000E+000 0.000000000000000E+000
 0.335803559634134E+000 0.383542776348782E+000 0.000000000000000E+000
 0.336532598712019E+000 0.357683733574730E+000 0.000000000000000E+000
 0.359467231669231E+000 0.373245301984702E+000 0.000000000000000E+000
 0.343934463338461E+000 0.371490603969405E+000 0.000000000000000E+000
 0.282487936406968E+000 0.807459263208752E+000 0.000000000000000E+000
 0.305575998249685E+000 0.804456393897098E+000 0.000000000000000E+000
 0.295918802660261E+000 0.825641633973708E+000 0.000000000000000E+000
 0.294660912438971E+000 0.812519097026519E+000 0.000000000000000E+000
 0.175282215461891E+000 0.800806334698565E+000 0.000000000000000E+000
 0.189500824919726E+000 0.816116689644714E+000 0.000000000000000E+000
 0.177344931931150E+000 0.812339643222100E+000 0.000000000000000E+000
 0.170154373811013E+000 0.781206741260999E+000 0.000000000000000E+000
 0.177294624314697E+000 0.761570228173484E+000 0.000000000000000E+000
 0.203125000000000E+000 0.755008498579984E+000 0.000000000000000E+000
 0.234375000000000E+000 0.755008498579984E+000 0.000000000000000E+000
 0.218750000000000E+000 0.770033994319935E+000 0.000000000000000E+000
 0.218750000000000E+000 0.760016997159967E+000 0.000000000000000E+000
 0.171875000000000E+000 0.744791666666667E+000 0.000000000000000E+000
 0.247008086556606E+000 0.825209785421116E+000 0.000000000000000E+000
 0.262655960020354E+000 0.814883810853807E+000 0.000000000000000E+000
 0.254996959665743E+000 0.827368192316630E+000 0.000000000000000E+000
 0.205953249832105E+000 0.776579498682440E+000 0.000000000000000E+000
 0.183187999328421E+000 0.781190516030003E+000 0.000000000000000E+000
 0.190328249832105E+000 0.761554002942489E+000 0.000000000000000E+000
 0.193156499664211E+000 0.773108005884977E+000 0.000000000000000E+000
 0.169258041149259E+000 0.755024723810979E+000 0.000000000000000E+000
 0.230722362303739E+000 0.790942462306033E+000 0.000000000000000E+000
 0.256504842491222E+000 0.802116681261574E+000 0.000000000000000E+000
 0.240856969027474E+000 0.812442655828883E+000 0.000000000000000E+000
 0.242694724607478E+000 0.801833933132163E+000 0.000000000000000E+000
 0.342347019559578E+000 0.782845565479912E+000 0.000000000000000E+000
 0.351767536208115E+000 0.806484945267580E+000 0.000000000000000E+000
 0.328717561589778E+000 0.795702316610104E+000 0.000000000000000E+000
 0.340944039119157E+000 0.795010942452532E+000 0.000000000000000E+000
 0.232552493395827E+000 0.778767232551766E+000 0.000000000000000E+000
 0.248177493395827E+000 0.763741736811814E+000 0.000000000000000E+000
 0.258334973583310E+000 0.789941451507307E+000 0.000000000000000E+000
 0.246354986791655E+000 0.777483473623629E+000 0.000000000000000E+000
 0.185547452313138E+000 0.792839472041225E+000 0.000000000000000E+000
 0.208312702816822E+000 0.788228454693661E+000 0.000000000000000E+000
 0.199766061770974E+000 0.808149826987374E+000 0.000000000000000E+000
 0.197875405633645E+000 0.796405917907420E+000 0.000000000000000E+000
 0.335481763860092E+000 0.828779182834090E+000 0.000000000000000E+000
 0.327001247664906E+000 0.807185720948649E+000 0.000000000000000E+000
 0.350051222283243E+000 0.817968349606125E+000 0.000000000000000E+000
 0.337511411269414E+000 0.817977751129622E+000 0.000000000000000E+000
 0.238044756321261E+000 0.834156615930811E+000 0.000000000000000E+000
 0.219279321892629E+000 0.793858180085423E+000 0.000000000000000E+000
 0.229413928616364E+000 0.815358373608273E+000 0.000000000000000E+000
 0.210732680846780E+000 0.813779552379136E+000 0.000000000000000E+000
 0.219808643785257E+000 0.807665368690944E+000 0.000000000000000E+000
 0.268751640249977E+000 0.787936663740675E+000 0.000000000000000E+000
 0.258594160062494E+000 0.761736949045183E+000 0.000000000000000E+000
 0.274219160062494E+000 0.770748081485238E+000 0.000000000000000E+000
 0.267188320124988E+000 0.773473898090365E+000 0.000000000000000E+000
 0.316910607227136E+000 0.583265612921431E+000 0.000000000000000E+000
 0.298039920960361E+000 0.598890612921431E+000 0.000000000000000E+000
 0.300838266104520E+000 0.583062451685723E+000 0.000000000000000E+000
 0.305262931430672E+000 0.588406225842861E+000 0.000000000000000E+000
 0.272348873259367E+000 0.817502609586356E+000 0.000000000000000E+000
 0.285779739512660E+000 0.835684980351312E+000 0.000000000000000E+000
 0.274382786143769E+000 0.832605789781728E+000 0.000000000000000E+000
 0.279833487593376E+000 0.795668945535288E+000 0.000000000000000E+000
 0.285301007405894E+000 0.778480363279850E+000 0.000000000000000E+000
 0.302921549436093E+000 0.792666076223634E+000 0.000000000000000E+000
 0.289352014811788E+000 0.788938461679591E+000 0.000000000000000E+000
 0.318373514010066E+000 0.761178979879161E+000 0.000000000000000E+000
 0.333998514010066E+000 0.771519074132807E+000 0.000000000000000E+000
 0.320369056040266E+000 0.784375825263000E+000 0.000000000000000E+000
 0.324247028020133E+000 0.772357959758323E+000 0.000000000000000E+000
 0.358514361961094E+000 0.770432723577764E+000 0.000000000000000E+000
 0.374139361961094E+000 0.760092629324119E+000 0.000000000000000E+000
 0.387182447844375E+000 0.780030423042829E+000 0.000000000000000E+000
 0.373278723922188E+000 0.770185258648237E+000 0.000000000000000E+000
 0.328125000000000E+000 0.753446698084548E+000 0.000000000000000E+000
 0.359375000000000E+000 0.753446698084548E+000 0.000000000000000E+000
 0.343750000000000E+000 0.763786792338194E+000 0.000000000000000E+000
 0.343750000000000E+000 0.756893396169097E+000 0.000000000000000E+000
 0.365866717492475E+000 0.805398594712537E+000 0.000000000000000E+000
 0.356446200843939E+000 0.781759214924869E+000 0.000000000000000E+000
 0.385114286727220E+000 0.791356914389934E+000 0.000000000000000E+000
 0.369142401687878E+000 0.792838241342447E+000 0.000000000000000E+000
 0.400552013784456E+000 0.825773759981097E+000 0.000000000000000E+000
 0.376893170727604E+000 0.816402230976595E+000 0.000000000000000E+000
 0.396140739962350E+000 0.802360550653991E+000 0.000000000000000E+000
 0.391195308158137E+000 0.814845513870561E+000 0.000000000000000E+000
 0.403519356084681E+000 0.848205926323890E+000 0.000000000000000E+000
 0.371935791571904E+000 0.828917355814994E+000 0.000000000000000E+000
 0.395594634628756E+000 0.838288884819497E+000 0.000000000000000E+000
 0.381280549846735E+000 0.839875763547360E+000 0.000000000000000E+000
 0.402774429392306E+000 0.760300710434816E+000 0.000000000000000E+000
 0.398247464702178E+000 0.777497419757092E+000 0.000000000000000E+000
 0.385204378818897E+000 0.757559626038381E+000 0.000000000000000E+000
 0.395408757637794E+000 0.765119252076763E+000 0.000000000000000E+000
 0.445053112534658E+000 0.790694832884304E+000 0.000000000000000E+000
 0.425931264461871E+000 0.765831619466346E+000 0.000000000000000E+000
 0.454182906334243E+000 0.772016758068821E+000 0.000000000000000E+000
 0.441722427776924E+000 0.776181070139823E+000 0.000000000000000E+000
 0.449658632145337E+000 0.865616301225001E+000 0.000000000000000E+000
 0.316098857595653E+000 0.810653258088361E+000 0.000000000000000E+000
 0.324579373790839E+000 0.832246719973802E+000 0.000000000000000E+000
 0.306441662006228E+000 0.831838498164971E+000 0.000000000000000E+000
 0.315706631130907E+000 0.824912825409044E+000 0.000000000000000E+000
 0.363568456179546E+000 0.852900818082076E+000 0.000000000000000E+000
 0.344623565988752E+000 0.840207957117447E+000 0.000000000000000E+000
 0.359193024411903E+000 0.829397123889482E+000 0.000000000000000E+000
 0.355795015526734E+000 0.840835299696335E+000 0.000000000000000E+000
 0.554970618051020E+000 0.560396480484634E+000 0.000000000000000E+000
 0.522342053385280E+000 0.552211380796809E+000 0.000000000000000E+000
 0.554364814642349E+000 0.542151011214598E+000 0.000000000000000E+000
 0.543892495359550E+000 0.551586290832014E+000 0.000000000000000E+000
 0.612782254074659E+000 0.746618588772815E+000 0.000000000000000E+000
[...]
CELL_DATA         8205
SCALARS opt_tdens double 1
LOOKUP_TABLE default
 0.104829951387155E-009
 0.159995571244454E-009
 0.110648273097107E-009
 0.422441098435656E-009
 0.396708227343577E-007
 0.749987303865792E-009
 0.146982762463227E-009
 0.372225341907470E-007
 0.156283608667993E-008
 0.172666122353689E-007
 0.121714871712574E-008
 0.307997181460038E-009
 0.226556304666528E-007
 0.952347850739239E-010
 0.347996690459882E-009
 0.878652944083999E-010
 0.112034365552472E-009
 0.749374105307054E-010
 0.113375253628517E-008
 0.105500947436774E-009
 0.205034761896299E-009
 0.396921847018415E-009
 0.795826401365884E-010
 0.329389494595875E-009
 0.766144162421898E-010
 0.106616449693863E-009
 0.291500298168532E-009
 0.743092143809001E-010
 0.567868276034724E-009
 0.163240337777671E-007
 0.810959749599401E-002
 0.323874910504555E-009
 0.583283743502100E-009
 0.840472053078430E-010
 0.810961033481557E-002
 0.152748130694633E-009
 0.163901543466632E-009
 0.862856013219541E-010
 0.837939413652902E-010
 0.184364816999989E-009
 0.195356326010051E-006
 0.712064526027992E-008
 0.754498451417656E-010
 0.355090104850691E-009
 0.896171983955145E-010
 0.197701635396398E-006
 0.275105190404664E-009
 0.637151006194320E-008
 0.319454189831746E-009
 0.931537474347761E-010
 0.858218668594393E-010
 0.902813795178482E-010
 0.740131201982646E-010
 0.319930365181712E-009
 0.428634945066270E-008
 0.389130178028828E-006
 0.728232780815089E-010
 0.117820778253333E-009
 0.328612544508481E-006
 0.237555231789968E-009
 0.323771687618953E-007
 0.101757603460466E-009
 0.249705754927848E-009
 0.342537477111006E-009
 0.788652631085827E-010
 0.204186193232500E-006
 0.715811480104834E-010
 0.495460761728353E-007
 0.126463654211605E-009
 0.156118554501304E-009
 0.554797161706235E-009
 0.936182531143261E-010
 0.631120784985225E-007
 0.417211084481444E-009
 0.878849260342910E-010
 0.250539283143622E-006
 0.323565592081614E-009
 0.156893483470912E-009
 0.108274533589893E-006
 0.101306575712436E-006
 0.887884299778912E-010
 0.270468037650249E-009
 0.910773918520228E-010
 0.140485771917209E-009
 0.180452975103361E-009
 0.126666242733575E-009
 0.841946570067120E-010
 0.635830883890530E-009
 0.252828992871937E-007
 0.752163169129731E-007
 0.128294112304885E-009
 0.359420464914486E-009
 0.453199342028789E-007
 0.645701640990304E-007
 0.366473940287041E-009
 0.111515781229567E-006
 0.904365927419698E-009
 0.178666620987019E-008
 0.953223147621759E-010
 0.251806077494191E-009
 0.112787974278028E-006
 0.209691258730215E-008
 0.794680591783280E-010
 0.161563520053137E-009
 0.515302488347924E-009
 0.126625587236060E-009
 0.908003361168157E-009
 0.150830398490346E-008
 0.110829688789469E-006
 0.958111927533352E-010
 0.523707877806129E-009
 0.118654179980192E-009
 0.839434684300875E-010
 0.833007040902880E-009
 0.152367712633362E-009
 0.174568905640467E-009
 0.278261794468466E-006
 0.370442462160622E-009
 0.216242925679786E-007
 0.138547234806504E-009
 0.338313258412236E-006
 0.398321628941852E-009
 0.152922685536602E-009
 0.141771682826588E-009
 0.791685385250659E-010
 0.625969567464175E-009
 0.123934500298078E-009
 0.232508297868523E-009
 0.118592971643967E-008
 0.170127150502471E-008
 0.395644047570067E-009
 0.152135157177276E-002
 0.376834797882952E-009
 0.188902886600271E-007
 0.601820226331801E-003
 0.224749721680484E-009
 0.947312675100001E-008
 0.436962833819116E-008
 0.603283123350183E-003
 0.961537872168974E-008
 0.751470697017886E-009
 0.372083077530192E-009
 0.282409772166394E-009
 0.152325003096100E-002
 0.286928450328363E-008
 0.186378742638531E-009
 0.383880460554529E-009
 0.112301088844851E-009
 0.358393306364702E-009
 0.281348979489370E-009
 0.375774258978923E-009
 0.222390841518662E-008
 0.122049211045151E-009
 0.246791733598330E-009
 0.252392480389492E-009
 0.984545030380169E-006
 0.219396374195168E-008
 0.941847177772458E-010
 0.384355403143439E-007
 0.605294665915561E-003
 0.172934366663364E-009
 0.944289875279367E-009
 0.437082408123299E-009
 0.994337104840315E-010
 0.119508340814382E-009
 0.923503404275988E-009
 0.270039107208929E-007
 0.178439169992585E-006
 0.371063052962801E-007
 0.220743250023439E-009
 0.918764322462683E-009
 0.265328943828356E-001
 0.409349727877061E-009
 0.802830572063999E-010
 0.100359365642380E-009
 0.265327617591431E-001
 0.475397489622660E-009
 0.161090869730259E-006
 0.561650442021773E-009
 0.223207121206274E-006
 0.365919020002145E-008
 0.935217858252326E-010
 0.197094678242159E-009
 0.802876130393174E-010
 0.773963583779252E-010
 0.140602395215794E-009
 0.735721210770881E-010
 0.124376638846901E-009
 0.528877208916607E-006
 0.295812035294385E-009
 0.120515415619699E-007
 0.946792326281605E-009
 0.542777365649091E-006
 0.967724082943612E-010
 0.380966875266658E-008
 0.160576430154352E-009
 0.159344421073723E-006
 0.176018193620976E-009
 0.517900960423690E-009
 0.474194786697100E-009
 0.405379485837232E-006
 0.872949860331904E-010
 0.331491705971599E-009
 0.603451828903147E-009
 0.384202118677635E-006
 0.778921497493990E-010
 0.970222076783544E-008
 0.228450593398727E-009
 0.152852968724543E-009
 0.154509599409546E-008
 0.746814775288865E-010
 0.937094900768886E-010
 0.187148619202958E-009
 0.306469720428342E-008
 0.997058285021228E-010
 0.749724344032345E-010
 0.562438532975682E-009
 0.166395474304556E-009
 0.342760839741334E-006
 0.527956919603249E-009
 0.335986550366602E-007
 0.767720721593295E-010
 0.537548131168283E-008
 0.335848324698036E-009
 0.253426218055263E-006
 0.857293968692860E-010
 0.219344527325154E-009
 0.896852075897788E-010
 0.201964462995145E-009
 0.381271623231969E-006
 0.670473412248314E-008
 0.123079738033932E-009
 0.116337202490242E-009
 0.745147418932667E-010
 0.146997191280826E-007
 0.147146233741713E-009
 0.195313249224546E-007
 0.149974243083764E-007
 0.198694573464154E-009
 0.494366408684594E-009
 0.983886244583447E-010
 0.184845869632770E-009
 0.195676168185663E-007
 0.146802213887956E-008
 0.179234029188948E-009
 0.276317459765050E-009
 0.283157695586629E-009
 0.997990970463688E-009
 0.961869014626153E-009
 0.254906672055630E-009
 0.242704898231558E-009
 0.289673262105835E-008
 0.181403932856430E-009
 0.106158458239697E-009
 0.126616283459913E-008
 0.104056481264298E-009
 0.161459932987734E-007
 0.259727494930597E-009
 0.140064877194825E-009
 0.419537677912148E-007
 0.623682920803139E-009
 0.447338107356501E-004
 0.531074160676737E-009
 0.301381492255380E-008
 0.450768730346888E-004
 0.778907454428500E-010
 0.936884602863338E-010
 0.416699414023850E-001
 0.271944394868757E-009
 0.107309025211493E-008
 0.405200947850884E-009
 0.225437650291947E-009
 0.141886840013544E-009
 0.145775228913265E-009
 0.416697418903661E-001
 0.936636585159516E-009
 0.246338191931436E-009
 0.449588423701149E-009
 0.183652143681746E-009
 0.178290468019305E-008
 0.275340722105227E-009
 0.909714561580654E-007
 0.187117572311570E-008
 0.107545894281669E-008
 0.798453431428061E-007
 0.159748605949130E-009
 0.965059342372898E-010
 0.885238255551220E-010
 0.204304358085432E-001
 0.109761612805579E-008
 0.103018465543738E-008
 0.142508005238153E-009
 0.215434724754103E-009
 0.204303388239086E-001
 0.110927101608711E-007
 0.979380546708530E-009
 0.156171757142167E-008
 0.107220303867674E-009
 0.228622348904150E-009
 0.164095217937052E-009
 0.950655589386345E-010
 0.782466122218464E-008
 0.177303350452746E-009
 0.153305162546413E-008
 0.150453846201878E-009
 0.129882254133386E-008
 0.251534965832995E-009
 0.778792784423881E-010
 0.756801876514146E-010
 0.102266944484934E-009
 0.393950076857942E-008
 0.327427186339795E-009
 0.959574549863500E-008
 0.204305369199737E-001
 0.741102296451332E-009
 0.154131065326959E-005
 0.174413027153967E-009
 0.729174282776191E-009
 0.167395582984463E-009
 0.150766416090369E-005
 0.195073683744785E-008
 0.304450278688180E-009
 0.232060015461456E-009
 0.106285251063357E-009
 0.251885867570303E-007
 0.518208423102457E-009
 0.138163717972107E-006
 0.812287220716144E-009
 0.122611961024093E-006
 0.181972201412356E-008
 0.412975198040818E-009
 0.258850010090432E-009
 0.100694680821862E-009
 0.849503470241002E-010
 0.200633205343082E-009
 0.297059799639828E-009
 0.109997294185938E-009
 0.120233700216227E-009
 0.355912376135540E-009
 0.650605316615845E-009
 0.572211737303622E-006
 0.773619231529542E-006
 0.103718160605267E-009
 0.539293470428023E-009
 0.107642711820598E-009
 0.719664472373902E-007
 0.119226397156919E-009
 0.380889913871785E-009
 0.760719830831694E-010
 0.155965246036194E-009
 0.265315425589956E-001
 0.147661643610751E-009
 0.952393922323275E-009
 0.232257860447899E-009
 0.312031394468546E-006
 0.265302301833294E-001
 0.197371905874951E-008
 0.862332613959059E-010
 0.145416570077050E-009
 0.605631302798583E-009
 0.102837647145258E-009
 0.130188190256524E-009
 0.408060603051109E-007
 0.380654854496882E-009
 0.139468785126636E-006
 0.371675873170389E-009
 0.930751275657705E-010
 0.194662657369412E-009
 0.944507429155588E-010
 0.144514686134783E-009
 0.605707695518967E-003
 0.702747715205136E-009
 0.605689795743358E-003
 0.105638771837627E-009
 0.311471716152689E-009
 0.871063867826041E-010
 0.152627112840626E-002
 0.839297610758979E-010
 0.513097343835769E-008
 0.183378661948479E-009
 0.482086941655028E-009
 0.121350636520827E-007
 0.182756896456807E-009
 0.943686430079693E-009
 0.605682274150623E-003
 0.132245054540011E-007
 0.118333118124503E-009
 0.359889289814019E-008
 0.152623926897049E-002
 0.262059961204737E-002
 0.374075583788200E-008
 0.119630557142307E-009
 0.944974095924217E-009
 0.208566624628655E-009
 0.152567776543243E-002
 0.585248996308670E-009
 0.126156348397581E-007
 0.521521394298691E-008
 0.905159368699514E-010
 0.476288658095087E-008
 0.111692448775925E-009
 0.605330165313401E-003
 0.273542393599732E-009
 0.567312379229231E-008
 0.892595599193948E-010
 0.398084150317696E-009
 0.142220268044051E-009
 0.630642051724944E-009
 0.547534480655800E-003
 0.868476906506488E-010
 0.858301054879776E-009
 0.170903785768486E-009
 0.219095348576738E-007
 0.253266034297366E-002
 0.396749022401136E-008
 0.147211889220522E-009
 0.274329578357912E-009
 0.101268415654786E-009
 0.973817909335645E-008
 0.475256780927166E-009
 0.146713142760121E-009
 0.325836184138653E-008
 0.580708095165608E-003
 0.399223053210196E-006
 0.433960094802736E-009
 0.369940056044512E-008
 0.177027093561870E-007
 0.124972711870444E-004
 0.181578654222538E-009
 0.171808759482088E-009
 0.138597059274595E-009
 0.992335489662325E-005
 0.582603314258134E-009
 0.207032468199242E-009
 0.207058497723659E-004
 0.108188431556251E-008
 0.589919674299507E-009
 0.445798228751616E-009
 0.103244270792058E-009
 0.368384816270668E-009
 0.113766893109885E-009
 0.359597863190199E-008
 0.148762934777544E-009
 0.595272064866751E-005
 0.599146643938786E-003
 0.233807054135587E-009
 0.350701345799423E-007
 0.907193219568307E-010
 0.131981144090358E-009
 0.124025739467732E-009
 0.882497311981177E-010
 0.346862971086372E-007
 0.905669296062262E-010
 0.103965702677665E-008
 0.244748915948439E-001
 0.605515012938774E-003
 0.271082853025179E-009
 0.160734472132110E-009
 0.265314931928955E-001
 0.185798611215831E-009
 0.221809953431407E-009
 0.913563687275820E-010
 0.331198984064991E-009
 0.201386187348380E-009
 0.203209618876575E-009
 0.303954479582724E-009
 0.364464896382776E-007
 0.124048697393747E-008
 0.743590315740851E-009
 0.625575651655956E-003
 0.186468544416938E-007
 0.871790917995357E-005
 0.411727140645332E-009
 0.433353231351966E-009
 0.857195997572769E-009
 0.169337233033689E-008
 0.157789497547813E-009
 0.307309009008379E-008
 0.139289961079903E-008
 0.313513401077556E-007
 0.605706435815134E-003
 0.256339423648022E-009
 0.302857031982999E-007
 0.113987483608427E-009
 0.296571898367947E-009
 0.115981372278035E-009
 0.724164910952256E-009
 0.500908485339666E-008
 0.521540046692180E-002
 0.325684367298521E-009
 0.852554148363478E-008
 0.977312252101456E-009
 0.674799320628871E-007
 0.976060470983487E-009
 0.201918070716664E-008
 0.145028828669252E-009
 0.780487948552619E-007
 0.259203752110132E-009
 0.797488425480697E-007
 0.179012704641937E-008
 0.139238173624254E-009
 0.316736756364595E-009
 0.384902904468165E-009
 0.564780586492852E-007
 0.153464247035257E-008
 0.179836908019939E-009
 0.289270379895610E-009
 0.238000823323610E-009
 0.204308459285977E-008
 0.160178056319816E-008
 0.847605791196653E-009
 0.737944621981956E-010
 0.139904563901136E-007
 0.262064984521912E-002
 0.185655282119275E-001
 0.350697929229114E-009
 0.319515818964265E-009
 0.138304473921154E-009
 0.605527144114455E-003
 0.201388695308420E-009
 0.189276498804209E-008
 0.120161214016759E-009
 0.173213079877691E-009
 0.720057396353089E-010
 0.219591553617120E-009
 0.545558666125383E-006
 0.179396657462454E-008
 0.295203272868195E-009
 0.818528059317763E-010
 0.487661302553305E-009
 0.436440329724905E-006
 0.455807236423018E-007
 0.113306318717931E-007
 0.426490031671502E-009
 0.471929601450947E-006
 0.816266755733597E-010
 0.186604252543748E-009
 0.209482786696744E-006
 0.721119545886457E-010
 0.219203104814382E-009
 0.194869854146074E-006
 0.568710066505132E-009
 0.155662588814080E-009
 0.483213614191676E-006
 0.762059035683652E-010
 0.531149822602410E-009
 0.148178523181716E-009
 0.517097673460435E-006
 0.737551462378822E-010
 0.225991775540976E-009
 0.849423811212117E-010
 0.126396112725288E-009
 0.137233267560162E-008
 0.176819491384915E-009
 0.140163969770258E-009
 0.784721628164172E-010
 0.950530534559409E-010
 0.334798821049594E-008
 0.205716307876227E-009
 0.459389741167131E-007
 0.203295010332634E-009
 0.385462710024745E-006
 0.206792150379979E-009
 0.796933936579361E-006
 0.986149585468782E-005
 0.678701233393106E-009
 0.189054133109499E-009
 0.123400715373405E-009
 0.984300950678831E-010
 0.331659077186376E-009
 0.208183881086015E-004
 0.921065327857292E-008
 0.129167826100703E-008
 0.299961006320468E-009
 0.106573327899625E-009
 0.104037718397766E-009
 0.224231712021527E-009
 0.839216207748770E-009
 0.398121604881864E-007
 0.773623416047145E-010
 0.101540932146936E-009
 0.421244334239589E-009
 0.787095820044216E-006
 0.613093108204269E-006
 0.170811998219816E-009
 0.754790803662320E-006
 0.177776100701886E-008
 0.100349453805719E-008
 0.152627285102656E-002
 0.164622161995933E-009
 0.605795507602450E-003
 0.340270600489190E-007
 0.160154862251084E-009
 0.769419535857130E-008
 0.123596340910836E-009
 0.269582299855263E-009
 0.162110682075873E-008
 0.152632390489233E-002
 0.140535034474065E-007
 0.293617381395983E-009
 0.130958534024429E-001
 0.227256842226727E-009
 0.235222773020618E-009
 0.127884262347575E-009
 0.916693747303427E-009
 0.625962059675683E-009
 0.265314461751607E-001
 0.440959393651721E-009
 0.265314493671315E-001
 0.606619400227742E-008
 0.398054483737288E-007
 0.794261997226010E-009
 0.176708663163657E-008
 0.105045270107315E-009
 0.806609049561576E-009
 0.107013532014303E-009
 0.137545149482866E-009
 0.242324261497513E-009
 0.323194183252904E-007
 0.198744803285521E-009
 0.320111325145759E-007
 0.483687563679019E-007
 0.816573620362239E-010
 0.648596165190120E-009
 0.125698918211250E-009
 0.655846115113657E-007
 0.141573956589226E-009
 0.899007628629378E-009
 0.150929149618469E-009
 0.250349519775633E-007
 0.451651912052384E-009
 0.249857988880791E-009
 0.281557333767606E-009
 0.117585867093391E-009
 0.156881666632471E-008
 0.262073531614788E-002
 0.366764915657109E-009
 0.434298415529491E-009
 0.121941086478611E-009
 0.809623248488185E-010
 0.906812040087494E-010
 0.184362078037535E-009
 0.133683714731143E-008
 0.371630138373065E-009
 0.522219621660642E-006
 0.671366711687668E-008
 0.273258004876613E-009
 0.542270448970396E-009
 0.206734435976360E-004
 0.180543949656651E-007
 0.162441436778111E-009
 0.186615025440120E-009
 0.114683749027941E-009
 0.913017000564759E-009
 0.655325345465016E-007
 0.919124436658112E-010
 0.518537290820051E-009
 0.239560023493788E-009
 0.206235375080356E-009
 0.158844957611821E-009
 0.158256183521035E-009
 0.578632888427307E-007
 0.181419519570029E-009
 0.579304056568055E-006
 0.115792679922043E-008
 0.127748193379200E-009
 0.314408796167629E-009
 0.244959792067005E-009
 0.105588837408973E-009
 0.375971379068530E-006
 0.260505459076496E-009
 0.194604590648939E-008
 0.736507683422335E-010
 0.108404888429074E-009
 0.692834614193429E-007
 0.279571898918217E-009
 0.224011844207599E-009
 0.268355304238244E-006
 0.285669069769412E-009
 0.905469208738028E-010
 0.760285372177004E-010
 0.251689037968048E-009
 0.126211604937392E-005
 0.506561075335791E-006
 0.151780178180385E-009
 0.160095870857606E-009
 0.161435626143304E-005
 0.387733471958614E-009
 0.258436126285293E-006
 0.747171415569474E-010
 0.202793664098664E-006
 0.688685509947574E-006
 0.469434096484308E-009
 0.249051275877884E-009
 0.277459692036564E-009
 0.529677451570012E-009
 0.834182900074743E-010
 0.189275883321620E-009
 0.236418690623678E-009
 0.314847655010037E-006
 0.107802819114595E-009
 0.891857434463748E-008
 0.171726430435276E-009
 0.142008109989828E-009
 0.151923174903478E-009
 0.790926963049269E-007
 0.127196594250511E-009
 0.464803718127982E-009
 0.215040028644944E-009
 0.812366856958973E-010
 0.153502420343673E-009
 0.349726817728185E-007
 0.357606797113624E-007
 0.831541348632971E-010
 0.970516660049382E-008
 0.296268299450704E-009
 0.780114084938227E-009
 0.132754874000675E-009
 0.104946975878953E-009
 0.565337462642930E-006
 0.196420379795823E-009
 0.214438644066124E-008
 0.517919607413803E-006
 0.469289255343699E-009
 0.340324881452045E-009
 0.116622554826791E-009
 0.119581406594277E-009
 0.740556735161029E-010
 0.175217010381466E-008
 0.734908448714646E-010
 0.132363839882294E-009
 0.110520709212631E-008
 0.830070819495551E-010
 0.141561056751548E-009
 0.133474779541381E-007
 0.119352769380029E-004
 0.457320179160849E-005
 0.537914669871272E-008
 0.892261226709735E-010
 0.203241151756593E-004
 0.286473491107203E-009
 0.131217593647906E-009
 0.443752493663298E-009
 0.853114060136911E-009
 0.223026714419382E-009
 0.211551584802926E-009
 0.839370933188282E-007
 0.761176165868415E-007
 0.166484621475447E-009
 0.257325779494193E-009
 0.221390153155246E-009
 0.533854845517392E-008
 0.910819093748144E-010
 0.802205556374482E-010
 0.560115045043973E-006
 0.139310436272013E-009
 0.565393096571603E-009
 0.132333561465794E-009
 0.753914174120983E-009
 0.448321285387816E-009
 0.271031515462691E-009
 0.785562829659738E-009
 0.892527489902309E-007
 0.698699931478860E-009
 0.335602693955790E-007
 0.367780117505091E-007
 0.200745403511661E-009
 0.688287712949470E-008
 0.515928147875131E-009
 0.837780958161432E-010
 0.718495559540840E-009
 0.127414382596562E-009
 0.190077005078712E-009
 0.103896931584779E-009
 0.142054119432390E-007
 0.902909059823651E-005
 0.522034356715257E-006
 0.738276994308918E-009
 0.413400814674227E-007
 0.971036307918594E-005
 0.117616201485468E-008
 0.985038458485012E-007
 0.720994058163778E-010
 0.277278036753879E-009
 0.115574936857129E-009
 0.450469846843635E-008
 0.112366490607557E-009
 0.132771622286266E-009
 0.134994244325086E-006
 0.341126050658399E-009
 0.143418054190939E-005
 0.254444106621860E-008
 0.380722137893937E-009
 0.158123050207245E-009
 0.749488976753769E-010
 0.150084102222317E-005
 0.336611753928600E-009
 0.122689265177757E-007
 0.253972645584066E-002
 0.167533673627478E-008
 0.195014151405028E-005
 0.253337016545876E-002
 0.264399098575174E-007
 0.267691853300892E-009
 0.151212729255246E-009
 0.156830571368484E-009
 0.293382758362982E-007
 0.114099395447018E-008
 0.370502846117936E-007
 0.149831602450830E-005
 0.183983604639470E-001
 0.130490068101618E-001
 0.274452579659832E-008
 0.741815543042265E-009
 0.218070683017519E-009
 0.995982206993641E-009
 0.100006748782939E-009
 0.117653022243914E-009
 0.253114900805244E-009
 0.733508559094011E-010
 0.488594352379733E-009
 0.314032619402540E-007
 0.238010321243026E-006
 0.121205490956351E-009
 0.861885658833842E-010
 0.259701019564939E-006
 0.577150895159215E-009
 0.725330873658267E-007
 0.751079278365552E-010
 0.415591763913583E-009