# vtk DataFile Version 3.0
Unstructured Grid
ASCII
DATASET UNSTRUCTURED_GRID
FIELD FieldData 1
TIME 1 1 float
  0.212085E+02
POINTS         2102 double
 0.000000000000000E+000 0.000000000000000E+000 0.000000000000000E+000
 0.100000000000000E+001 0.000000000000000E+000 0.000000000000000E+000
 0.100000000000000E+001 0.100000000000000E+001 0.000000000000000E+000
 0.000000000000000E+000 0.100000000000000E+001 0.000000000000000E+000
 0.125000000000000E+000 0.250000000000000E+000 0.000000000000000E+000
 0.375000000000000E+000 0.250000000000000E+000 0.000000000000000E+000
 0.375000000000000E+000 0.750000000000000E+000 0.000000000000000E+000
 0.125000000000000E+000 0.750000000000000E+000 0.000000000000000E+000
 0.625000000000000E+000 0.250000000000000E+000 0.000000000000000E+000
 0.875000000000000E+000 0.250000000000000E+000 0.000000000000000E+000
 0.875000000000000E+000 0.750000000000000E+000 0.000000000000000E+000
 0.625000000000000E+000 0.750000000000000E+000 0.000000000000000E+000
 0.100000000000000E+001 0.500000000000000E+000 0.000000000000000E+000
 0.000000000000000E+000 0.500000000000000E+000 0.000000000000000E+000
 0.500000000000000E+000 0.000000000000000E+000 0.000000000000000E+000
 0.125000000000000E+000 0.500000000000000E+000 0.000000000000000E+000
 0.000000000000000E+000 0.750000000000000E+000 0.000000000000000E+000
 0.000000000000000E+000 0.250000000000000E+000 0.000000000000000E+000
 0.000000000000000E+000 0.875000000000000E+000 0.000000000000000E+000
 0.000000000000000E+000 0.125000000000000E+000 0.000000000000000E+000
 0.000000000000000E+000 0.812500000000000E+000 0.000000000000000E+000
 0.625000000000000E-001 0.812500000000000E+000 0.000000000000000E+000
 0.125000000000000E+000 0.375000000000000E+000 0.000000000000000E+000
 0.000000000000000E+000 0.375000000000000E+000 0.000000000000000E+000
 0.125000000000000E+000 0.625000000000000E+000 0.000000000000000E+000
 0.312500000000000E-001 0.781250000000000E+000 0.000000000000000E+000
 0.000000000000000E+000 0.625000000000000E+000 0.000000000000000E+000
 0.781250000000000E-001 0.765625000000000E+000 0.000000000000000E+000
 0.312500000000000E-001 0.843750000000000E+000 0.000000000000000E+000
 0.500000000000000E+000 0.100000000000000E+001 0.000000000000000E+000
 0.852352799227800E-001 0.850726351351351E+000 0.000000000000000E+000
 0.531250000000000E-001 0.896875000000000E+000 0.000000000000000E+000
 0.128125000000000E+000 0.862500000000000E+000 0.000000000000000E+000
 0.125000000000000E+000 0.100000000000000E+001 0.000000000000000E+000
 0.250000000000000E+000 0.750000000000000E+000 0.000000000000000E+000
 0.000000000000000E+000 0.937500000000000E+000 0.000000000000000E+000
 0.250000000000000E+000 0.100000000000000E+001 0.000000000000000E+000
 0.117915518486872E+000 0.805415518486872E+000 0.000000000000000E+000
 0.201656717908302E+000 0.819893736067327E+000 0.000000000000000E+000
 0.181985294117647E-001 0.906250000000000E+000 0.000000000000000E+000
 0.157158578892515E+000 0.827852167423944E+000 0.000000000000000E+000
 0.187500000000000E+000 0.750000000000000E+000 0.000000000000000E+000
 0.190370748034901E+000 0.885171153579592E+000 0.000000000000000E+000
 0.173219498992632E+000 0.789273026175030E+000 0.000000000000000E+000
 0.125000000000000E+000 0.687500000000000E+000 0.000000000000000E+000
 0.000000000000000E+000 0.687500000000000E+000 0.000000000000000E+000
 0.441080729166667E-001 0.732584635416667E+000 0.000000000000000E+000
 0.625000000000000E-001 0.100000000000000E+001 0.000000000000000E+000
 0.324539302647226E+000 0.874753539998500E+000 0.000000000000000E+000
 0.138239725210285E+000 0.931515391482052E+000 0.000000000000000E+000
 0.218750000000000E+000 0.780050991479902E+000 0.000000000000000E+000
 0.282595248614805E+000 0.815169690490412E+000 0.000000000000000E+000
 0.241894668607517E+000 0.813568527927710E+000 0.000000000000000E+000
 0.259830219207979E+000 0.875750318441249E+000 0.000000000000000E+000
 0.375000000000000E+000 0.687500000000000E+000 0.000000000000000E+000
 0.894072114981556E-001 0.718750000000000E+000 0.000000000000000E+000
 0.156250000000000E+000 0.718750000000000E+000 0.000000000000000E+000
 0.171875000000000E+000 0.671875000000000E+000 0.000000000000000E+000
 0.208984375000000E+000 0.705078125000000E+000 0.000000000000000E+000
 0.187500000000000E+000 0.100000000000000E+001 0.000000000000000E+000
 0.100742481264918E+000 0.901762004578004E+000 0.000000000000000E+000
 0.897955050140944E-001 0.954063112745616E+000 0.000000000000000E+000
 0.454072994832874E-001 0.943019090840959E+000 0.000000000000000E+000
 0.312500000000000E-001 0.978320013898389E+000 0.000000000000000E+000
 0.151802024837252E+000 0.894278844061106E+000 0.000000000000000E+000
 0.312500000000000E+000 0.750000000000000E+000 0.000000000000000E+000
 0.349824395642442E+000 0.812398913150492E+000 0.000000000000000E+000
 0.291845278223558E+000 0.853213315943310E+000 0.000000000000000E+000
 0.312500000000000E+000 0.100000000000000E+001 0.000000000000000E+000
 0.221920040905101E+000 0.857011448773234E+000 0.000000000000000E+000
 0.610875609743251E-001 0.656250000000000E+000 0.000000000000000E+000
 0.575501251937821E-001 0.695518883967223E+000 0.000000000000000E+000
 0.229414059980049E+000 0.912264575939035E+000 0.000000000000000E+000
 0.267409472953924E+000 0.912989160289387E+000 0.000000000000000E+000
 0.247617500704634E+000 0.954276202159214E+000 0.000000000000000E+000
 0.186156415773925E+000 0.932922904662876E+000 0.000000000000000E+000
 0.161177138586098E+000 0.966975254724362E+000 0.000000000000000E+000
 0.281250000000000E+000 0.775106270475024E+000 0.000000000000000E+000
 0.232477697233870E+000 0.641481728091557E+000 0.000000000000000E+000
 0.375000000000000E+000 0.500000000000000E+000 0.000000000000000E+000
 0.343750000000000E+000 0.773669964712841E+000 0.000000000000000E+000
 0.500000000000000E+000 0.836710937419870E+000 0.000000000000000E+000
 0.625000000000000E-001 0.460493798860530E+000 0.000000000000000E+000
 0.225506433867106E-001 0.656250000000000E+000 0.000000000000000E+000
 0.625000000000000E-001 0.578156919744020E+000 0.000000000000000E+000
 0.100683627400278E+000 0.656250000000000E+000 0.000000000000000E+000
 0.808855941873017E-001 0.617548766045778E+000 0.000000000000000E+000
 0.396623706279028E-001 0.612802597169787E+000 0.000000000000000E+000
 0.000000000000000E+000 0.562500000000000E+000 0.000000000000000E+000
 0.209099082089092E+000 0.966015356758449E+000 0.000000000000000E+000
 0.208176344887401E+000 0.668642063067022E+000 0.000000000000000E+000
 0.375000000000000E+000 0.625000000000000E+000 0.000000000000000E+000
 0.281250000000000E+000 0.727693574222975E+000 0.000000000000000E+000
 0.410395729589754E-001 0.531250000000000E+000 0.000000000000000E+000
 0.243044505147503E+000 0.715165207256627E+000 0.000000000000000E+000
 0.427668699245901E+000 0.807527989856971E+000 0.000000000000000E+000
 0.375000000000000E+000 0.100000000000000E+001 0.000000000000000E+000
 0.396556497766215E+000 0.872516538744482E+000 0.000000000000000E+000
 0.125000000000000E+000 0.562500000000000E+000 0.000000000000000E+000
 0.386020873411304E-001 0.491878123024719E+000 0.000000000000000E+000
 0.837862679783012E-001 0.496009823563561E+000 0.000000000000000E+000
 0.181474703505393E+000 0.615400296494607E+000 0.000000000000000E+000
 0.156642498481761E+000 0.640232501518239E+000 0.000000000000000E+000
 0.148741293073547E+000 0.593750000000000E+000 0.000000000000000E+000
 0.198570897886273E+000 0.531250000000000E+000 0.000000000000000E+000
 0.186280074550956E+000 0.572564766212389E+000 0.000000000000000E+000
 0.261115628859886E+000 0.572342169151976E+000 0.000000000000000E+000
 0.223664380580028E+000 0.561200712513239E+000 0.000000000000000E+000
 0.260913847788851E+000 0.504504802962447E+000 0.000000000000000E+000
 0.220403809070327E+000 0.602182935170118E+000 0.000000000000000E+000
 0.280942357260745E+000 0.670965807217831E+000 0.000000000000000E+000
 0.303530083216233E+000 0.699208028468857E+000 0.000000000000000E+000
 0.244300952472090E+000 0.677895460994186E+000 0.000000000000000E+000
 0.278676255979588E+000 0.620116626474426E+000 0.000000000000000E+000
 0.375000000000000E+000 0.562500000000000E+000 0.000000000000000E+000
 0.294783395930685E+000 0.587081428049465E+000 0.000000000000000E+000
 0.296390010773290E+000 0.538188197482711E+000 0.000000000000000E+000
 0.326808615275446E+000 0.623140446700340E+000 0.000000000000000E+000
 0.375000000000000E+000 0.375000000000000E+000 0.000000000000000E+000
 0.341600259444201E+000 0.531250000000000E+000 0.000000000000000E+000
 0.337040360926244E+000 0.581802448479955E+000 0.000000000000000E+000
 0.313454820588085E+000 0.656240056545723E+000 0.000000000000000E+000
 0.244117968371280E+000 0.386059455330322E+000 0.000000000000000E+000
 0.316730626055850E+000 0.471195859600445E+000 0.000000000000000E+000
 0.343361747898823E+000 0.718361747898823E+000 0.000000000000000E+000
 0.387582141166944E+000 0.791354577928815E+000 0.000000000000000E+000
 0.394629419637968E+000 0.831652479273046E+000 0.000000000000000E+000
 0.359139968398398E+000 0.852480346691833E+000 0.000000000000000E+000
 0.449407668689709E+000 0.857876667231944E+000 0.000000000000000E+000
 0.504433083654504E+000 0.918355468709935E+000 0.000000000000000E+000
 0.438910290808154E+000 0.922698775777408E+000 0.000000000000000E+000
 0.487684842153978E+000 0.878322236197629E+000 0.000000000000000E+000
 0.750000000000000E+000 0.100000000000000E+001 0.000000000000000E+000
 0.429264219376497E+000 0.887875644335434E+000 0.000000000000000E+000
 0.297282757956014E+000 0.952697072250340E+000 0.000000000000000E+000
 0.308758340495749E+000 0.912972519020668E+000 0.000000000000000E+000
 0.353713070703707E+000 0.947478792032462E+000 0.000000000000000E+000
 0.343750000000000E+000 0.982091257636542E+000 0.000000000000000E+000
 0.437500000000000E+000 0.100000000000000E+001 0.000000000000000E+000
 0.386196294810884E+000 0.916319687483247E+000 0.000000000000000E+000
[...]
CELL_DATA         4076
SCALARS tdens double 1
LOOKUP_TABLE default
 0.656950321021635E-007
 0.780131402250980E-007
 0.975822926610329E-007
 0.799848296658825E-007
 0.339249537672791E-004
 0.182535067772089E-004
 0.186800369530849E-004
 0.198256030034132E-004
 0.277594075625124E+000
 0.584409044380002E+000
 0.237795287181770E+000
 0.303361189605670E+000
 0.706324162714426E-007
 0.103836626368082E-006
 0.942976166519456E-007
 0.842437506137439E-007
 0.126471724995346E-006
 0.207351009188314E-006
 0.177847613029905E-006
 0.157155805255370E-006
 0.235295908133458E-006
 0.359105514330664E-006
 0.289841631560222E-006
 0.287441696018169E-006
 0.289895076318501E-002
 0.270447053896444E-002
 0.245547511740107E-001
 0.150301030274069E-001
 0.481445239303632E-004
 0.118717788889452E-003
 0.846814254768237E-004
 0.890111854458516E-004
 0.422345497306308E-003
 0.161286885518507E-003
 0.288475996662489E-003
 0.302976796916041E-003
 0.144756118715798E-006
 0.148481527677964E-006
 0.154821531154124E-006
 0.150371582144202E-006
 0.262123852781781E-005
 0.198405156168971E-005
 0.186370313054304E-005
 0.208223222319765E-005
 0.918724881588678E-001
 0.294448293120780E-001
 0.236198623441447E-001
 0.262598196879003E-001
 0.921388826585110E-007
 0.982474913377656E-007
 0.135684470489096E-006
 0.102134436734589E-006
 0.285617080563632E-001
 0.367381701816851E-001
 0.109162820835428E+000
 0.270758187909902E-001
 0.577868266532053E-005
 0.410902594180449E-005
 0.415134542736460E-005
 0.446259120627916E-005
 0.139281156453235E-004
 0.963002955358515E-005
 0.665224966756445E-005
 0.956353871875034E-005
 0.146932172618328E-006
 0.180021906430883E-006
 0.268174041667076E-006
 0.191526919569784E-006
 0.107585386924929E-005
 0.865460506167640E-006
 0.593977990417727E-006
 0.842331261916580E-006
 0.455217972248006E-007
 0.438401964102295E-007
 0.851029068753279E-007
 0.578624153500262E-007
 0.120157416403434E-001
 0.685771429639966E-001
 0.387153501695606E-002
 0.839893602786000E-002
 0.463879266416087E-001
 0.672188732204401E-001
 0.144757929454096E-001
 0.341560723763257E-001
 0.139723766207023E-006
 0.142995569981908E-006
 0.150924053709200E-006
 0.145342173974475E-006
 0.123740803871079E-001
 0.504872919689307E-001
 0.649225711744529E-001
 0.487414773831229E-001
 0.179977534955555E-006
 0.141576343304611E-006
 0.160822399434943E-006
 0.155291445097738E-006
 0.117886209315171E-001
 0.660658675033917E-002
 0.581475957106245E-001
 0.179358363724841E-001
 0.689944465449933E-005
 0.341720077343293E-005
 0.329754811631229E-005
 0.376544796565882E-005
 0.262111712584892E-006
 0.496109044660671E-006
 0.282273555138125E-006
 0.321773191008578E-006
 0.621110570568085E+000
 0.332884280925536E+000
 0.434283284521771E+000
 0.481554582393938E+000
 0.207697700664072E-006
 0.256313384594159E-006
 0.175502026142553E-006
 0.208587762436930E-006
 0.260851623812340E-005
 0.693074600705794E-006
 0.109436043441712E-005
 0.112563594190550E-005
 0.335944459684390E-006
 0.662283106555764E-006
 0.477350245141346E-006
 0.464601843218335E-006
 0.721335423575847E-006
 0.485388661269441E-006
 0.499900112820589E-006
 0.548431088248004E-006
 0.944630625523272E-006
 0.225298101963970E-005
 0.458006790271611E-006
 0.832428880761292E-006
 0.601050143649322E-006
 0.873540985555738E-006
 0.114737417867024E-005
 0.837008628408380E-006
 0.153707911152161E-006
 0.131512979977646E-006
 0.541640403310379E-007
 0.799396405078242E-007
 0.105064405735108E+000
 0.166180423352863E+000
 0.163034976048785E+000
 0.177986072553000E+000
 0.855488815351422E-006
 0.402275813561887E-006
 0.195376286096320E-005
 0.663496381821105E-006
 0.116234385757120E-006
 0.948911066372660E-007
 0.123085508110789E-006
 0.111193158296830E-006
 0.285019021759893E-006
 0.195052865126521E-006
 0.279012933234181E-006
 0.245730686063241E-006
 0.156774301464361E-006
 0.158585142048056E-006
 0.142163072422615E-006
 0.150399115173664E-006
 0.217907171112017E-006
 0.182969870636440E-006
 0.260134167646541E-006
 0.214946992617522E-006
 0.888096726528040E-006
 0.492390616543326E-006
 0.185349056341406E-005
 0.854504822420883E-006
 0.132969958202502E-006
 0.169430763884223E-006
 0.133594141556571E-006
 0.145500597780221E-006
 0.327564254233233E-007
 0.187285341653638E-007
 0.239215900285086E-007
 0.256918636989635E-007
 0.442385320292101E-005
 0.623621582695727E-005
 0.635693011187966E-005
 0.581876412196478E-005
 0.422650357832814E-007
 0.684824550929417E-007
 0.776045612654742E-007
 0.598958757686109E-007
 0.880575409424087E-004
 0.114411340712098E-003
 0.323492478143318E-004
 0.877027459510662E-004
 0.574923853670133E-005
 0.161997491355702E-005
 0.692442142748308E-005
 0.414955902892788E-005
 0.275828799567009E-006
 0.356588488214099E-006
 0.548149333221677E-006
 0.371171890743302E-006
 0.197252548013964E-006
 0.171336516202471E-006
 0.123874481556331E-006
 0.161340302882311E-006
 0.222180260063167E-006
 0.256775583798191E-006
 0.353450589017817E-006
 0.271015795079262E-006
 0.111294660995917E-006
 0.946986288742737E-007
 0.859513933063976E-007
 0.931430449563442E-007
 0.128681475851991E+000
 0.917264020432495E-001
 0.204617770902451E+000
 0.146073867893312E+000
 0.115801536782645E-006
 0.129507037324020E-006
 0.180245508100085E-006
 0.140147806442209E-006
 0.787756958222914E-007
 0.617102457243509E-007
 0.721181466496040E-007
 0.730301840283049E-007
 0.629553073851213E-004
 0.105270686162522E-003
 0.168826015055672E-004
 0.324693078606099E-004
 0.362834622011353E-006
 0.431500458586011E-006
 0.294654693235417E-006
 0.362185361009664E-006
 0.148883768841609E-006
 0.199928386369545E-006
 0.207935225641033E-006
 0.180217238180410E-006
 0.449277891427657E-006
 0.316937816223679E-006
 0.575178548604549E-006
 0.436326898302356E-006
 0.141911457986239E-006
 0.942054448522701E-007
 0.101875330996134E-006
 0.112316066319910E-006
 0.391552290601459E-007
 0.657971031156337E-007
 0.537859686533840E-007
 0.520274465864982E-007
 0.220398161589400E-005
 0.484573132051319E-005
 0.398920599006021E-005
 0.398286834812503E-005
 0.129240079251134E-005
 0.176818719300804E-005
 0.300997419370040E-005
 0.174168893877095E-005
 0.134905583139982E-003
 0.202155275909592E-003
 0.547892051022245E-004
 0.116738761656825E-003
 0.105035879695007E-001
 0.452220228798664E-001
 0.290272412833201E-002
 0.176828385995232E-001
 0.111231951157997E-004
 0.705723582868017E-005
 0.183317879615364E-004
 0.119877483503233E-004
 0.275727928607052E-006
 0.386295518297296E-006
 0.382429958028692E-006
 0.349881635076890E-006
 0.139950875515605E-005
 0.436626467480923E-005
 0.186134825112383E-005
 0.212002737037106E-005
 0.294341919098863E-004
 0.142183454763410E-004
 0.618646466309923E-004
 0.347343855762095E-004
 0.725312230987906E-007
 0.844282617019868E-007
 0.922172448303365E-007
 0.827170361676738E-007
 0.241154326091331E-006
 0.176243817127538E-006
 0.179267571159611E-006
 0.196468949069855E-006
 0.140369579783264E-006
 0.132416652496390E-006
 0.113232238313017E-006
 0.127365663529188E-006
 0.236052907144480E-006
 0.173569417016557E-006
 0.167424751147150E-006
 0.188979576501682E-006
 0.565218735576969E-007
 0.830979390986435E-007
 0.749864979055813E-007
 0.693247943719599E-007
 0.331338260714323E-007
 0.480732230234123E-007
 0.412942173525179E-007
 0.379729398406270E-007
 0.715403720450606E-005
 0.839502338391380E-005
 0.187308325319397E-004
 0.861576740436595E-005
 0.167457821104887E-005
 0.132217939182749E-005
 0.179748301640524E-005
 0.161553409848584E-005
 0.481754804626974E-006
 0.730027892301825E-006
 0.450104667589244E-006
 0.531632926952426E-006
 0.100359131141846E-005
 0.544890848282819E-006
 0.551090314417377E-006
 0.630739464957633E-006
 0.627048672263915E-004
 0.197861079833429E-004
 0.326713433057448E-004
 0.333933112499391E-004
 0.103796162701055E-004
 0.199002564328286E-004
 0.741006726967694E-005
 0.961230984952072E-005
 0.426795836242511E-003
 0.199011105372190E-002
 0.131547688549830E-002
 0.157868213815019E-002
 0.116017213692210E-004
 0.145340330151348E-004
 0.817869121131254E-005
 0.107503439598801E-004
 0.122320217653490E-003
 0.539754404983835E-004
 0.216425885371661E-003
 0.112012434361402E-003
 0.566512434159911E-005
 0.361699834034505E-005
 0.719701316029453E-005
 0.581850128019922E-005
 0.261862659671600E-005
 0.304510642753138E-005
 0.451983369692061E-005
 0.311027861730779E-005
 0.285836784538756E-005
 0.223895066679538E-005
 0.131111911003194E-005
 0.224295903763612E-005
 0.153749558180017E-001
 0.645118537585037E+000
 0.527272990699962E+001
 0.626429568677820E+000
 0.285897496051291E-001
 0.136549379527805E-001
 0.426904862633066E-001
 0.350047447707259E-001
 0.410105239611047E-006
 0.414584967416294E-006
 0.126717424578580E-005
 0.536278926844761E-006
 0.100365953795080E-006
 0.948124717208908E-007
 0.122249674841216E-006
 0.106019244297569E-006
 0.122912882215477E+000
 0.147734308147730E+000
 0.906811532107236E-001
 0.924053682741855E-001
 0.332655135677656E-002
 0.250409940783540E-002
 0.347815279287652E-001
 0.140561189770136E-001
 0.233339028930239E-002
 0.220453411412338E-001
 0.231805130355622E-002
 0.126670247168958E-001
 0.534053718794525E-001
 0.118968723239497E-001
 0.498394889197751E-001
 0.241235859759308E-001
 0.382406004139468E-001
 0.266361458617511E-001
 0.109411779996821E+000
 0.247292373309742E-001
 0.199514086973455E-001
 0.706163328940480E-001
 0.566022532994063E-001
 0.184238231547339E-001
 0.244247510975636E-006
 0.339189763600445E-006
 0.231770538907112E-006
 0.264827735765044E-006
 0.377710099143086E-006
 0.241219132384209E-006
 0.384163045249711E-006
 0.336545899596874E-006
 0.110376831367851E-006
 0.164676342687817E-006
 0.182271519116495E-006
 0.150442908884383E-006
 0.991166746873784E-007
 0.949901427476208E-007
 0.157859490972479E-006
 0.116858726088077E-006
 0.192208257386536E-007
 0.332301389504505E-007
 0.244210888194912E-007
 0.261218962941123E-007
 0.764424765310483E-007
 0.516866639405917E-007
 0.569991403379395E-007
 0.616956807600529E-007
 0.345509720101238E-007
 0.435641634342699E-007
 0.608206629408668E-007
 0.444645799854100E-007
 0.191217421697808E-007
 0.499010030580824E-008
 0.134591355131028E-007
 0.110300778381071E-007
 0.177011063621342E-007
 0.127114962070796E-007
 0.461507623972447E-008
 0.990941661859446E-008
 0.833698207034816E-006
 0.544704826177325E-006
 0.801747287529590E-006
 0.738187196877218E-006
 0.219471525609133E-006
 0.341169534463277E-006
 0.244032953581485E-006
 0.259503557800626E-006
 0.139684357003052E-002
 0.360539050146816E-003
 0.246430614357954E-003
 0.385777288986583E-003
 0.152614478040389E+000
 0.284562090644724E+000
 0.250099811622096E+000
 0.192111026861164E+000
 0.740702035657284E-004
 0.189371338087039E-003
 0.113102521733791E-003
 0.110762449862972E-003
 0.921812171027572E-006
 0.867039491225005E-006
 0.642035227431436E-006
 0.774107175122798E-006
 0.212091377122364E-004
 0.943977121290096E-005
 0.165318412682391E-004
 0.164628343540352E-004
 0.149478042507003E-005
 0.176619438703982E-005
 0.128509917937884E-005
 0.149441884593993E-005
 0.102154382461400E-007
 0.145662104579751E-007
 0.390193837791824E-008
 0.970831933433976E-008
 0.176153475597852E-007
 0.312584145007518E-007
 0.216190956173461E-007
 0.215843545557435E-007
 0.764294431148935E-005
 0.356796352787850E-005
 0.519310681509052E-005
 0.488961376542384E-005
 0.131445894148121E-005
 0.208017067693866E-005
 0.216210882544826E-005
 0.191534213101677E-005
 0.543783253423226E-007
 0.355467591959537E-007
 0.551926030283595E-007
 0.478601123618919E-007
 0.495798162741662E-006
 0.227129784245005E-006
 0.303138447072740E-006
 0.338104379662609E-006
 0.111690037641199E-006
 0.138735330229062E-006
 0.145635095446960E-006
 0.127843686052936E-006
 0.150755913932422E-006
 0.131382601037094E-006
 0.171112372712650E-006
 0.151795245020492E-006
 0.187484795753999E-005
 0.115559436991627E-005
 0.112865501198904E-005
 0.126751359932673E-005
 0.153214620182262E-005
 0.126140165589595E-005
 0.206405961933633E-005
 0.155867018445452E-005
 0.412641015120209E-005
 0.274084693162397E-005
 0.449638131752556E-005
 0.398344081441230E-005
 0.872187502065314E-006
 0.575610806981835E-006
 0.684038074572248E-006
 0.720759462807972E-006
 0.985028695841659E-006
 0.120751976053118E-005
 0.800469443523481E-006
 0.987322084545786E-006
 0.494146883412428E-006
 0.773791872015338E-006
 0.653306939824558E-006
 0.618824288055108E-006
 0.365585506695333E-006
 0.353061777293204E-006
 0.256504471032532E-006
 0.322216452934419E-006
 0.201891653423047E-006
 0.126841440036083E-006
 0.183013465732921E-006
 0.166267562100079E-006
 0.125103123938779E-006
 0.187159131495660E-006
 0.183355696704999E-006
 0.151649075778726E-006
 0.194133876725739E-004
 0.629524165497740E-004
 0.238694938294254E-004
 0.243959253125569E-004
 0.536318340736460E-003
 0.161930288172747E-002
 0.234265513396042E-003
 0.722856447587251E-003
 0.211912513576050E-002
 0.996559183352552E-002
 0.997355630919301E-002
 0.524922221035264E-002
 0.119334058529020E+001
 0.335627694923209E+000
 0.805269516524023E+000
 0.107770172209432E+001
 0.678745941277111E-001
 0.628368695453164E-001
 0.527708067614959E-001
 0.695941447133176E-001
 0.240571506751871E+000
 0.166046304783554E+000
 0.110117857863881E+000
 0.176967835055456E+000
 0.174567830541385E-003
 0.306940645749668E-003
 0.821273820392964E-003
 0.269207063829809E-003
 0.111985898866476E-003
 0.439046409439698E-004
 0.324692016408940E-004
 0.438003851155904E-004
 0.169878082182689E-005
 0.184523666500568E-005
 0.153936942618129E-005
 0.168188290145406E-005
 0.112153726499705E-006
 0.143578007497357E-006
 0.180595361726143E-006
 0.135333807201999E-006
 0.285621040509132E-004
 0.383497448279677E-004
 0.621519379235447E-004
 0.364988683398004E-004
 0.107211733905292E-005
 0.830529025707883E-006
 0.121625681605588E-005
 0.103284195329952E-005
 0.787728376153621E-007
 0.657061663176389E-007
 0.676270763775413E-007
 0.688702689669426E-007
 0.131335737242211E-006
 0.981524599237334E-007
 0.115544357148040E-006
 0.112823191664450E-006
 0.637006790550994E-008
 0.169487473428932E-007
 0.183374098630914E-007
 0.124233646209317E-007
 0.415313738765677E-007
 0.253243229507071E-007
 0.248976538826303E-007
 0.313710706318543E-007
 0.253625919841481E-006
 0.530487040016955E-006
 0.334866337413580E-006
 0.330069332305836E-006
 0.115742324595394E-006
 0.159470645640223E-006
 0.122893779064495E-006
 0.132029301433335E-006
 0.994061153584811E-007
 0.856362351672649E-007
 0.751965067337222E-007
 0.870143287127269E-007
 0.422594905412082E-001
 0.657177765673911E-001
 0.766949439946768E-001
 0.478965548688527E-001
 0.634032575629430E-007
 0.857044458974471E-007
 0.674408070479011E-007
 0.726761282105603E-007
 0.779171580784058E-007
 0.975677619362142E-007
 0.104409705481186E-006
 0.913212912385466E-007
 0.495470954034712E-006
 0.436873534165898E-006
 0.577934465125049E-006
 0.497103761029692E-006
 0.556249176428130E-007
 0.342971574544972E-007
 0.506516574901736E-007
 0.439445103787347E-007
 0.234239992772470E-006
 0.319739467801592E-006
 0.248854111947201E-006
 0.261733790465654E-006
 0.759787046869818E-003
 0.136232549067115E-002
 0.129161382928767E-001
 0.818665344943072E-003
 0.835524606590836E-001
 0.120045423971158E+000
 0.704672368081029E-001
 0.113151214095212E+000
 0.842911926479580E-002
 0.107351867977697E-001
 0.677955191995995E-001
 0.103771489406548E-001
 0.171772833114336E-001
 0.218308472868078E-001
 0.115620371270840E-001
 0.131948971819943E-001
 0.378079797181119E-001
 0.237074091271245E-001
 0.130089850697172E-001
 0.205755616578311E-001
 0.105598415052066E+000
 0.637687786383411E-001
 0.129407562592363E+000
 0.119873835982687E+000
 0.155733139007226E+001
 0.580300848723308E+000
 0.162333420039245E+001
 0.139526485301438E+001
 0.320716497698591E-007
 0.253710313498492E-007
 0.427607578598986E-007
 0.318485744334585E-007
 0.471609348026881E+000
 0.308296764102101E+000
 0.314684098767727E+000
 0.364146645567192E+000
 0.518778815368272E-001
 0.541034640164751E-001
 0.743434487900961E-001
 0.933809672582256E-001
 0.886795193162194E-005
 0.151115287457166E-004
 0.114043988528060E-004
 0.114932829065357E-004
 0.186978772470276E-004
 0.106662423487049E-004
 0.722224052911008E-005
 0.111114588466992E-004
 0.653988919835668E-005
 0.743513932098517E-005
 0.911435029958730E-005
 0.748883811706319E-005
 0.129230064706307E-005
 0.123648512859093E-005
 0.155703943481694E-005
 0.132299426387454E-005
 0.335987241563080E-004
 0.319862280444428E-004
 0.158992830176287E-004
 0.308193151359492E-004
 0.483584878029340E-007
 0.458681847626358E-007
 0.301435607177320E-007
 0.402888370850611E-007
 0.364519615889898E-007
 0.435872973217769E-007
 0.271055188630697E-007
 0.363012563832778E-007
 0.135540755035718E-007
 0.980942618179132E-008
 0.328133660122190E-008
 0.664893859795421E-008
 0.194492666207941E-007
 0.304648173469957E-007
 0.334208594190555E-007
 0.271654330435437E-007
 0.615968893831729E-007
 0.972878119352550E-007
 0.623451179354813E-007
 0.692704016807706E-007
 0.111692811781889E-006
 0.115305700326447E-006
 0.632897681186570E-007
 0.887769496913642E-007
 0.374787928542020E-001
 0.637857370557479E-001
 0.371450827780235E-001
 0.532093560365102E-001
 0.719325589610324E-001
 0.177913352435427E-001
 0.384519805938400E-001
 0.334078246389225E-001
 0.176266147260153E-001
 0.480195665192241E-001
 0.494134651609743E-001
 0.211815206431334E-001
 0.262349074548056E-001
 0.291926461729213E-001
 0.119963333267354E-001
 0.192144279616828E-001
 0.191604147225277E-002
 0.189724890599133E-002
 0.158925961928007E-001
 0.852835969778380E-002
 0.193160080626374E-001
 0.233530133658013E-002
 0.222419524620663E-002
 0.115276328343522E-001
 0.159286324828411E+000
 0.208976879301263E+000
 0.527366710632618E+000
 0.121468302426073E+000
 0.232480557219361E+000
 0.119031785859002E+000
 0.138654694536715E+000
 0.928587495215433E-001
 0.901949445561991E-002
 0.313363173795954E-001
 0.885451426413881E-002
 0.487199519494338E-001
 0.906672893124664E-001
 0.101119986960966E+000
 0.117211267060801E+000
 0.112052725260833E+000
 0.157710632924391E+000
 0.152108775945382E+000
 0.167514814773870E+000
 0.145922772640246E+000
 0.139029922890380E+000
 0.146508894118817E+000
 0.263720841693752E+000
 0.128091387723090E+000
 0.133789343621354E+000
 0.110483479034206E+000
 0.108976341426227E+000
 0.113097625410682E+000
 0.242123064081551E+000
 0.311803955594026E+000
 0.203574413561596E+000
 0.205216572417175E+000
 0.593702322570956E-001
 0.199372417712962E-001
 0.605458494603632E-001
 0.306646597436056E-001
 0.198583397233972E+001
 0.698308678236925E+000
 0.175159207579665E+001
 0.136187402772121E+001
 0.684028503658235E-001
 0.113691075378729E+000
 0.726970810650444E-001
 0.109093577698013E+000
 0.165270097098937E+000
 0.158296214768406E+000
 0.118296121893537E+000
 0.158102038310041E+000
 0.398506266930382E-001
 0.778252880881865E-001
 0.278051232745033E-001
 0.901591121992403E-001
 0.189106616480659E+000
 0.113540943511357E+000
 0.179581882063134E+000
 0.260133899484936E+000
 0.282854173421233E-001
 0.253364139763822E-001
 0.217410895133111E-001
 0.176075215899789E-001
 0.432592931727582E-001
 0.142507303447515E+000
 0.628299325451597E-001
 0.355707327431737E-001
 0.477989001900633E+000
 0.485267553897452E+000
 0.413647670781825E+000
 0.425768251454633E+000
 0.224079613729982E+000
 0.108370893143998E+000
 0.135433201438701E+000
 0.130764672426094E+000
 0.346067578764677E+000
 0.410156770416916E+000
 0.272104883532489E+000
 0.266288562430941E+000
 0.548079263810541E+000
 0.338756688387644E+000
 0.167217189212247E+001
 0.915027387701315E+000
 0.173678937097987E+000
 0.156460373452532E+000
 0.227972387536814E+000
 0.185925208576230E+000
 0.157250312733221E+000
 0.180686670549541E+000
 0.274184669769323E+000
 0.190165265396080E+000
 0.179186418092793E+000
 0.149165396126971E+000
 0.182071810012577E+000
 0.178909650085108E+000
 0.821923545930433E+000
 0.182547352549329E+001
 0.539041029354057E+000
 0.523019252251121E+000
 0.619416065551858E-001
 0.106936105880918E+000