# vtk DataFile Version 3.0
Unstructured Grid
ASCII
DATASET UNSTRUCTURED_GRID
FIELD FieldData 1
TIME 1 1 float
  0.437085E+02
POINTS         2102 double
 0.000000000000000E+000 0.000000000000000E+000 0.000000000000000E+000
 0.100000000000000E+001 0.000000000000000E+000 0.000000000000000E+000
 0.100000000000000E+001 0.100000000000000E+001 0.000000000000000E+000
 0.000000000000000E+000 0.100000000000000E+001 0.000000000000000E+000
 0.125000000000000E+000 0.250000000000000E+000 0.000000000000000E+000
 0.375000000000000E+000 0.250000000000000E+000 0.000000000000000E+000
 0.375000000000000E+000 0.750000000000000E+000 0.000000000000000E+000
 0.125000000000000E+000 0.750000000000000E+000 0.000000000000000E+000
 0.625000000000000E+000 0.250000000000000E+000 0.000000000000000E+000
 0.875000000000000E+000 0.250000000000000E+000 0.000000000000000E+000
 0.875000000000000E+000 0.750000000000000E+000 0.000000000000000E+000
 0.625000000000000E+000 0.750000000000000E+000 0.000000000000000E+000
 0.100000000000000E+001 0.500000000000000E+000 0.000000000000000E+000
 0.000000000000000E+000 0.500000000000000E+000 0.000000000000000E+000
 0.500000000000000E+000 0.000000000000000E+000 0.000000000000000E+000
 0.125000000000000E+000 0.500000000000000E+000 0.000000000000000E+000
 0.000000000000000E+000 0.750000000000000E+000 0.000000000000000E+000
 0.000000000000000E+000 0.250000000000000E+000 0.000000000000000E+000
 0.000000000000000E+000 0.875000000000000E+000 0.000000000000000E+000
 0.000000000000000E+000 0.125000000000000E+000 0.000000000000000E+000
 0.000000000000000E+000 0.812500000000000E+000 0.000000000000000E+000
 0.625000000000000E-001 0.812500000000000E+000 0.000000000000000E+000
 0.125000000000000E+000 0.375000000000000E+000 0.000000000000000E+000
 0.000000000000000E+000 0.375000000000000E+000 0.000000000000000E+000
 0.125000000000000E+000 0.625000000000000E+000 0.000000000000000E+000
 0.312500000000000E-001 0.781250000000000E+000 0.000000000000000E+000
 0.000000000000000E+000 0.625000000000000E+000 0.000000000000000E+000
 0.781250000000000E-001 0.765625000000000E+000 0.000000000000000E+000
 0.312500000000000E-001 0.843750000000000E+000 0.000000000000000E+000
 0.500000000000000E+000 0.100000000000000E+001 0.000000000000000E+000
 0.852352799227800E-001 0.850726351351351E+000 0.000000000000000E+000
 0.531250000000000E-001 0.896875000000000E+000 0.000000000000000E+000
 0.128125000000000E+000 0.862500000000000E+000 0.000000000000000E+000
 0.125000000000000E+000 0.100000000000000E+001 0.000000000000000E+000
 0.250000000000000E+000 0.750000000000000E+000 0.000000000000000E+000
 0.000000000000000E+000 0.937500000000000E+000 0.000000000000000E+000
 0.250000000000000E+000 0.100000000000000E+001 0.000000000000000E+000
 0.117915518486872E+000 0.805415518486872E+000 0.000000000000000E+000
 0.201656717908302E+000 0.819893736067327E+000 0.000000000000000E+000
 0.181985294117647E-001 0.906250000000000E+000 0.000000000000000E+000
 0.157158578892515E+000 0.827852167423944E+000 0.000000000000000E+000
 0.187500000000000E+000 0.750000000000000E+000 0.000000000000000E+000
 0.190370748034901E+000 0.885171153579592E+000 0.000000000000000E+000
 0.173219498992632E+000 0.789273026175030E+000 0.000000000000000E+000
 0.125000000000000E+000 0.687500000000000E+000 0.000000000000000E+000
 0.000000000000000E+000 0.687500000000000E+000 0.000000000000000E+000
 0.441080729166667E-001 0.732584635416667E+000 0.000000000000000E+000
 0.625000000000000E-001 0.100000000000000E+001 0.000000000000000E+000
 0.324539302647226E+000 0.874753539998500E+000 0.000000000000000E+000
 0.138239725210285E+000 0.931515391482052E+000 0.000000000000000E+000
 0.218750000000000E+000 0.780050991479902E+000 0.000000000000000E+000
 0.282595248614805E+000 0.815169690490412E+000 0.000000000000000E+000
 0.241894668607517E+000 0.813568527927710E+000 0.000000000000000E+000
 0.259830219207979E+000 0.875750318441249E+000 0.000000000000000E+000
 0.375000000000000E+000 0.687500000000000E+000 0.000000000000000E+000
 0.894072114981556E-001 0.718750000000000E+000 0.000000000000000E+000
 0.156250000000000E+000 0.718750000000000E+000 0.000000000000000E+000
 0.171875000000000E+000 0.671875000000000E+000 0.000000000000000E+000
 0.208984375000000E+000 0.705078125000000E+000 0.000000000000000E+000
 0.187500000000000E+000 0.100000000000000E+001 0.000000000000000E+000
 0.100742481264918E+000 0.901762004578004E+000 0.000000000000000E+000
 0.897955050140944E-001 0.954063112745616E+000 0.000000000000000E+000
 0.454072994832874E-001 0.943019090840959E+000 0.000000000000000E+000
 0.312500000000000E-001 0.978320013898389E+000 0.000000000000000E+000
 0.151802024837252E+000 0.894278844061106E+000 0.000000000000000E+000
 0.312500000000000E+000 0.750000000000000E+000 0.000000000000000E+000
 0.349824395642442E+000 0.812398913150492E+000 0.000000000000000E+000
 0.291845278223558E+000 0.853213315943310E+000 0.000000000000000E+000
 0.312500000000000E+000 0.100000000000000E+001 0.000000000000000E+000
 0.221920040905101E+000 0.857011448773234E+000 0.000000000000000E+000
 0.610875609743251E-001 0.656250000000000E+000 0.000000000000000E+000
 0.575501251937821E-001 0.695518883967223E+000 0.000000000000000E+000
 0.229414059980049E+000 0.912264575939035E+000 0.000000000000000E+000
 0.267409472953924E+000 0.912989160289387E+000 0.000000000000000E+000
 0.247617500704634E+000 0.954276202159214E+000 0.000000000000000E+000
 0.186156415773925E+000 0.932922904662876E+000 0.000000000000000E+000
 0.161177138586098E+000 0.966975254724362E+000 0.000000000000000E+000
 0.281250000000000E+000 0.775106270475024E+000 0.000000000000000E+000
 0.232477697233870E+000 0.641481728091557E+000 0.000000000000000E+000
 0.375000000000000E+000 0.500000000000000E+000 0.000000000000000E+000
 0.343750000000000E+000 0.773669964712841E+000 0.000000000000000E+000
 0.500000000000000E+000 0.836710937419870E+000 0.000000000000000E+000
 0.625000000000000E-001 0.460493798860530E+000 0.000000000000000E+000
 0.225506433867106E-001 0.656250000000000E+000 0.000000000000000E+000
 0.625000000000000E-001 0.578156919744020E+000 0.000000000000000E+000
 0.100683627400278E+000 0.656250000000000E+000 0.000000000000000E+000
 0.808855941873017E-001 0.617548766045778E+000 0.000000000000000E+000
 0.396623706279028E-001 0.612802597169787E+000 0.000000000000000E+000
 0.000000000000000E+000 0.562500000000000E+000 0.000000000000000E+000
 0.209099082089092E+000 0.966015356758449E+000 0.000000000000000E+000
 0.208176344887401E+000 0.668642063067022E+000 0.000000000000000E+000
 0.375000000000000E+000 0.625000000000000E+000 0.000000000000000E+000
 0.281250000000000E+000 0.727693574222975E+000 0.000000000000000E+000
 0.410395729589754E-001 0.531250000000000E+000 0.000000000000000E+000
 0.243044505147503E+000 0.715165207256627E+000 0.000000000000000E+000
 0.427668699245901E+000 0.807527989856971E+000 0.000000000000000E+000
 0.375000000000000E+000 0.100000000000000E+001 0.000000000000000E+000
 0.396556497766215E+000 0.872516538744482E+000 0.000000000000000E+000
 0.125000000000000E+000 0.562500000000000E+000 0.000000000000000E+000
 0.386020873411304E-001 0.491878123024719E+000 0.000000000000000E+000
 0.837862679783012E-001 0.496009823563561E+000 0.000000000000000E+000
 0.181474703505393E+000 0.615400296494607E+000 0.000000000000000E+000
 0.156642498481761E+000 0.640232501518239E+000 0.000000000000000E+000
 0.148741293073547E+000 0.593750000000000E+000 0.000000000000000E+000
 0.198570897886273E+000 0.531250000000000E+000 0.000000000000000E+000
 0.186280074550956E+000 0.572564766212389E+000 0.000000000000000E+000
 0.261115628859886E+000 0.572342169151976E+000 0.000000000000000E+000
 0.223664380580028E+000 0.561200712513239E+000 0.000000000000000E+000
 0.260913847788851E+000 0.504504802962447E+000 0.000000000000000E+000
 0.220403809070327E+000 0.602182935170118E+000 0.000000000000000E+000
 0.280942357260745E+000 0.670965807217831E+000 0.000000000000000E+000
 0.303530083216233E+000 0.699208028468857E+000 0.000000000000000E+000
 0.244300952472090E+000 0.677895460994186E+000 0.000000000000000E+000
 0.278676255979588E+000 0.620116626474426E+000 0.000000000000000E+000
 0.375000000000000E+000 0.562500000000000E+000 0.000000000000000E+000
 0.294783395930685E+000 0.587081428049465E+000 0.000000000000000E+000
 0.296390010773290E+000 0.538188197482711E+000 0.000000000000000E+000
 0.326808615275446E+000 0.623140446700340E+000 0.000000000000000E+000
 0.375000000000000E+000 0.375000000000000E+000 0.000000000000000E+000
 0.341600259444201E+000 0.531250000000000E+000 0.000000000000000E+000
 0.337040360926244E+000 0.581802448479955E+000 0.000000000000000E+000
 0.313454820588085E+000 0.656240056545723E+000 0.000000000000000E+000
 0.244117968371280E+000 0.386059455330322E+000 0.000000000000000E+000
 0.316730626055850E+000 0.471195859600445E+000 0.000000000000000E+000
 0.343361747898823E+000 0.718361747898823E+000 0.000000000000000E+000
 0.387582141166944E+000 0.791354577928815E+000 0.000000000000000E+000
 0.394629419637968E+000 0.831652479273046E+000 0.000000000000000E+000
 0.359139968398398E+000 0.852480346691833E+000 0.000000000000000E+000
 0.449407668689709E+000 0.857876667231944E+000 0.000000000000000E+000
 0.504433083654504E+000 0.918355468709935E+000 0.000000000000000E+000
 0.438910290808154E+000 0.922698775777408E+000 0.000000000000000E+000
 0.487684842153978E+000 0.878322236197629E+000 0.000000000000000E+000
 0.750000000000000E+000 0.100000000000000E+001 0.000000000000000E+000
 0.429264219376497E+000 0.887875644335434E+000 0.000000000000000E+000
 0.297282757956014E+000 0.952697072250340E+000 0.000000000000000E+000
 0.308758340495749E+000 0.912972519020668E+000 0.000000000000000E+000
 0.353713070703707E+000 0.947478792032462E+000 0.000000000000000E+000
 0.343750000000000E+000 0.982091257636542E+000 0.000000000000000E+000
 0.437500000000000E+000 0.100000000000000E+001 0.000000000000000E+000
 0.386196294810884E+000 0.916319687483247E+000 0.000000000000000E+000
[...]
CELL_DATA         4076
SCALARS tdens double 1
LOOKUP_TABLE default
 0.100000000000000E-011
 0.100000000000000E-011
 0.100000000000000E-011
 0.100000000000000E-011
 0.383150808421265E-009
 0.198496260319126E-009
 0.195966261339666E-009
 0.211660345758106E-009
 0.112308444205801E+000
 0.682148661318664E+000
 0.946130209213568E-002
 0.288285238620903E+000
 0.100000000000000E-011
 0.100000000000000E-011
 0.100000000000000E-011
 0.100000000000000E-011
 0.100000000000000E-011
 0.163727238463398E-011
 0.137243848492644E-011
 0.121227386840251E-011
 0.183063534964872E-011
 0.282962621662295E-011
 0.224371544275958E-011
 0.224308269042380E-011
 0.237301518290558E-002
 0.224136317575060E-002
 0.272794367332562E-001
 0.150031589676504E-001
 0.636889040124305E-009
 0.187492370347387E-008
 0.121158531625721E-008
 0.130075201262095E-008
 0.835124358534338E-008
 0.258253871088092E-008
 0.518759422146624E-008
 0.556845833939231E-008
 0.112777787100366E-011
 0.115072979708903E-011
 0.120486749143024E-011
 0.116903963835962E-011
 0.238454683108889E-010
 0.178777363619567E-010
 0.166611350387580E-010
 0.186971248419782E-010
 0.443060256524276E-003
 0.952682503981249E-004
 0.301916703899442E-003
 0.118925034715793E-003
 0.100000000000000E-011
 0.100000000000000E-011
 0.108476979243377E-011
 0.100000000000000E-011
 0.241062681402649E-002
 0.326436639221290E-002
 0.195240533665110E+000
 0.151576272901443E-001
 0.589642295468145E-010
 0.404229404586816E-010
 0.407842996187250E-010
 0.440916706134048E-010
 0.147370688151078E-009
 0.922406567365409E-010
 0.647543061805224E-010
 0.944322664363939E-010
 0.112922448818347E-011
 0.138892705154211E-011
 0.209828358071792E-011
 0.148052472008325E-011
 0.913733846968167E-011
 0.737553771855022E-011
 0.497327434657463E-011
 0.717285339608568E-011
 0.100000000000000E-011
 0.100000000000000E-011
 0.100000000000000E-011
 0.100000000000000E-011
 0.750033263537481E-006
 0.164827414069204E-004
 0.122629670645397E-006
 0.459767569222798E-006
 0.352771772004556E-001
 0.828297043460695E-001
 0.118721801107023E-001
 0.189250954090849E-001
 0.108367517756621E-011
 0.110225365483900E-011
 0.116912910568681E-011
 0.112433505309113E-011
 0.149309548175219E-001
 0.556757089534775E-001
 0.961303234407190E-001
 0.444059390741281E-001
 0.141009417877042E-011
 0.110054910096638E-011
 0.125044112706425E-011
 0.121057765077158E-011
 0.121778905637686E-001
 0.249274963781357E-002
 0.688450814710785E-001
 0.209390932877425E-001
 0.666831247832933E-010
 0.321384531638572E-010
 0.305242776143621E-010
 0.351287655351983E-010
 0.208865376747526E-011
 0.404701832786671E-011
 0.226788284307420E-011
 0.258415355699270E-011
 0.123743926460213E+001
 0.208420145415764E-001
 0.161480760865118E+000
 0.381369665071594E+000
 0.160156648527329E-011
 0.198483632964685E-011
 0.134645061199027E-011
 0.160604954419996E-011
 0.235092603875795E-010
 0.565546592959529E-011
 0.915806348896508E-011
 0.941145854656911E-011
 0.267877399651156E-011
 0.542513772710472E-011
 0.384021481770820E-011
 0.374832620943729E-011
 0.615161882818005E-011
 0.407759955030149E-011
 0.418719799124231E-011
 0.460918444144774E-011
 0.804137693206910E-011
 0.207090488802910E-010
 0.362870375175838E-011
 0.707659883050573E-011
 0.498845679871936E-011
 0.730371016688434E-011
 0.972554466137416E-011
 0.699875666359389E-011
 0.129741867024726E-011
 0.107163210484191E-011
 0.100000000000000E-011
 0.100000000000000E-011
 0.241461070023270E+000
 0.146942147858929E-001
 0.319224361431276E+000
 0.546409503295138E+000
 0.712613173801981E-011
 0.311362674509822E-011
 0.173027085748377E-010
 0.540635953836290E-011
 0.100000000000000E-011
 0.100000000000000E-011
 0.100000000000000E-011
 0.100000000000000E-011
 0.223152198942026E-011
 0.150476504396034E-011
 0.216576182571513E-011
 0.190976719002117E-011
 0.120612036351697E-011
 0.122645694196501E-011
 0.109301021779516E-011
 0.115856584878937E-011
 0.171590742618157E-011
 0.142657665459688E-011
 0.204734326112955E-011
 0.168601935635729E-011
 0.735412592724028E-011
 0.396276252162609E-011
 0.161930825571097E-010
 0.705894006839972E-011
 0.103573821747146E-011
 0.132991910112990E-011
 0.104518066840905E-011
 0.113661135707833E-011
 0.100000000000000E-011
 0.100000000000000E-011
 0.100000000000000E-011
 0.100000000000000E-011
 0.435267103260013E-010
 0.633960301269649E-010
 0.650606304223259E-010
 0.591650998690798E-010
 0.100000000000000E-011
 0.100000000000000E-011
 0.100000000000000E-011
 0.100000000000000E-011
 0.126628472537728E-008
 0.178010330033055E-008
 0.390026537494094E-009
 0.126898136643289E-008
 0.502040965582876E-010
 0.137691799119452E-010
 0.649947575720086E-010
 0.365696875429553E-010
 0.219300378393614E-011
 0.284407534555680E-011
 0.447015464350228E-011
 0.297484110693911E-011
 0.157495192087488E-011
 0.137050105851313E-011
 0.100000000000000E-011
 0.128711942652035E-011
 0.179242425878633E-011
 0.206944601451480E-011
 0.288814754969377E-011
 0.219137946148636E-011
 0.100000000000000E-011
 0.100000000000000E-011
 0.100000000000000E-011
 0.100000000000000E-011
 0.140634578008700E+000
 0.841008952098375E-001
 0.217843261011870E+000
 0.192461886793579E+000
 0.100000000000000E-011
 0.101799999957526E-011
 0.143342869308349E-011
 0.110587698094743E-011
 0.100000000000000E-011
 0.100000000000000E-011
 0.100000000000000E-011
 0.100000000000000E-011
 0.743879618459083E-009
 0.128019034569324E-008
 0.154478441861135E-009
 0.300530358363108E-009
 0.299246266605327E-011
 0.357766907535865E-011
 0.240315015971878E-011
 0.298311903983854E-011
 0.116931684265893E-011
 0.157881883655800E-011
 0.165258137100644E-011
 0.142441819169853E-011
 0.368392708817447E-011
 0.255868662129867E-011
 0.471812220680514E-011
 0.356851911467806E-011
 0.113433078889745E-011
 0.100000000000000E-011
 0.100000000000000E-011
 0.100000000000000E-011
 0.100000000000000E-011
 0.100000000000000E-011
 0.100000000000000E-011
 0.100000000000000E-011
 0.190412157003299E-010
 0.426049671770538E-010
 0.353811815203457E-010
 0.352774739893426E-010
 0.112480355320680E-010
 0.153638596991803E-010
 0.268856045354248E-010
 0.151406124914138E-010
 0.165588271640590E-008
 0.256146108135697E-008
 0.520830466298910E-009
 0.118953245116824E-008
 0.109565158333580E-001
 0.497438192087279E-001
 0.242728813689552E-002
 0.179957244795731E-001
 0.106699129175936E-009
 0.648653256890500E-010
 0.173392889831847E-009
 0.113891555483207E-009
 0.225625895106338E-011
 0.319586542831854E-011
 0.317380873498386E-011
 0.289333356750405E-011
 0.118551381670773E-010
 0.383703255515477E-010
 0.160015215372587E-010
 0.181866899464787E-010
 0.270936304820569E-009
 0.127715381805974E-009
 0.589207703961270E-009
 0.316889934506214E-009
 0.100000000000000E-011
 0.100000000000000E-011
 0.100000000000000E-011
 0.100000000000000E-011
 0.188667999167785E-011
 0.136822206777897E-011
 0.138510579798050E-011
 0.152568988202473E-011
 0.107566177779993E-011
 0.101418766281987E-011
 0.100000000000000E-011
 0.100000000000000E-011
 0.182257725866530E-011
 0.133405147391904E-011
 0.128275617698403E-011
 0.145197257316752E-011
 0.100000000000000E-011
 0.100000000000000E-011
 0.100000000000000E-011
 0.100000000000000E-011
 0.100000000000000E-011
 0.100000000000000E-011
 0.100000000000000E-011
 0.100000000000000E-011
 0.739703096735441E-010
 0.876130547224346E-010
 0.215908430509347E-009
 0.900997702024818E-010
 0.151908162036855E-010
 0.117967545486396E-010
 0.164326302939171E-010
 0.146441418302384E-010
 0.405384526169035E-011
 0.628096386182661E-011
 0.377359340604716E-011
 0.448263337706849E-011
 0.852094004240716E-011
 0.455353030989239E-011
 0.458100520092570E-011
 0.525757331638855E-011
 0.754846167345041E-009
 0.202090292572099E-009
 0.324319898944190E-009
 0.347257478532186E-009
 0.939434380498292E-010
 0.185869090165593E-009
 0.677189160448521E-010
 0.869216115192024E-010
 0.914120717659172E-008
 0.749549767879059E-007
 0.446912234304295E-007
 0.602328782005832E-007
 0.118159982154298E-009
 0.155514529690264E-009
 0.835964754537455E-010
 0.110751912480873E-009
 0.154856088550782E-008
 0.528226519992550E-009
 0.237486063696297E-008
 0.121844309929323E-008
 0.557684381867087E-010
 0.341364435696747E-010
 0.701046086760486E-010
 0.571974573602019E-010
 0.246643724941332E-010
 0.288020625888364E-010
 0.442577797180013E-010
 0.294278850275236E-010
 0.254894358952855E-010
 0.200377386163317E-010
 0.114039976028886E-010
 0.201172119700114E-010
 0.360090499359725E-006
 0.421049458087415E-003
 0.780408922226052E+001
 0.367610135722088E-003
 0.641540277025926E-001
 0.110031765753101E-004
 0.842775639586427E-001
 0.408351587522643E-001
 0.325726621010102E-011
 0.326785503843076E-011
 0.106177444749270E-010
 0.426959974687654E-011
 0.100000000000000E-011
 0.100000000000000E-011
 0.100000000000000E-011
 0.100000000000000E-011
 0.320287693793013E-001
 0.535056159188756E+000
 0.371599245903030E+000
 0.536166142090864E+000
 0.314338540712381E-002
 0.257379565681497E-002
 0.325562112530467E-001
 0.138062961449163E-001
 0.237530049757577E-002
 0.231562772927103E-001
 0.226553398861441E-002
 0.128735500800695E-001
 0.608662000417945E-001
 0.129108746381419E-001
 0.560734551974859E-001
 0.193567035660920E-001
 0.154365274563461E-001
 0.320351685129774E-002
 0.189552393580025E+000
 0.867043325000908E-002
 0.154055847867088E-001
 0.152411642695645E-001
 0.594517912693456E-001
 0.704500056783549E-002
 0.199381005265225E-011
 0.280542171450459E-011
 0.188636603793574E-011
 0.216635045731303E-011
 0.310655198611048E-011
 0.195182656028942E-011
 0.314872753288193E-011
 0.275901353281851E-011
 0.100000000000000E-011
 0.132107607992099E-011
 0.146904294141510E-011
 0.120831622189025E-011
 0.100000000000000E-011
 0.100000000000000E-011
 0.127076209561152E-011
 0.100000000000000E-011
 0.100000000000000E-011
 0.100000000000000E-011
 0.100000000000000E-011
 0.100000000000000E-011
 0.100000000000000E-011
 0.100000000000000E-011
 0.100000000000000E-011
 0.100000000000000E-011
 0.100000000000000E-011
 0.100000000000000E-011
 0.100000000000000E-011
 0.100000000000000E-011
 0.100000000000000E-011
 0.100000000000000E-011
 0.100000000000000E-011
 0.100000000000000E-011
 0.100000000000000E-011
 0.100000000000000E-011
 0.100000000000000E-011
 0.100000000000000E-011
 0.718612161125552E-011
 0.459318123888126E-011
 0.686921069802967E-011
 0.633430928751035E-011
 0.177764804158892E-011
 0.280861529042821E-011
 0.198933192943892E-011
 0.211270281761725E-011
 0.536008792039154E-007
 0.766380342466712E-008
 0.459739139450033E-008
 0.825659886599555E-008
 0.211119300392700E+000
 0.563270916176046E+000
 0.314055154864171E+000
 0.295139093480560E+000
 0.101359865421142E-008
 0.307179740907049E-008
 0.168970545681113E-008
 0.163592542503635E-008
 0.800129094286360E-011
 0.746063301034009E-011
 0.543278534639233E-011
 0.661909435556793E-011
 0.246807884731106E-009
 0.990499343731437E-010
 0.183419049322858E-009
 0.184997751769573E-009
 0.134719412917196E-010
 0.161192855180938E-010
 0.114578986603077E-010
 0.134763633217743E-010
 0.100000000000000E-011
 0.100000000000000E-011
 0.100000000000000E-011
 0.100000000000000E-011
 0.100000000000000E-011
 0.100000000000000E-011
 0.100000000000000E-011
 0.100000000000000E-011
 0.731587634759921E-010
 0.328885156833352E-010
 0.479107833337944E-010
 0.452745771239405E-010
 0.116353991635552E-010
 0.187584754003767E-010
 0.197162973924312E-010
 0.173534514906491E-010
 0.100000000000000E-011
 0.100000000000000E-011
 0.100000000000000E-011
 0.100000000000000E-011
 0.424403856589669E-011
 0.175893616266018E-011
 0.251885169147775E-011
 0.276514609475175E-011
 0.100000000000000E-011
 0.105934460422479E-011
 0.111461912418457E-011
 0.100000000000000E-011
 0.115327350130754E-011
 0.100451156969889E-011
 0.131543477701124E-011
 0.116264647550209E-011
 0.168276611815927E-010
 0.101696545125138E-010
 0.985160585721200E-011
 0.111174932670511E-010
 0.138001637987846E-010
 0.111896796151846E-010
 0.188835792109286E-010
 0.140277499251124E-010
 0.401858823209977E-010
 0.258039888697220E-010
 0.438567552645758E-010
 0.388636925534485E-010
 0.755107387431863E-011
 0.484237322171962E-011
 0.584076546024049E-011
 0.617099137728667E-011
 0.862365328267085E-011
 0.107195040096362E-010
 0.691851182327866E-011
 0.864789433604708E-011
 0.415288394161299E-011
 0.666590864894361E-011
 0.557458326786789E-011
 0.527515758821170E-011
 0.303057596832321E-011
 0.291838109988400E-011
 0.209260589466118E-011
 0.265647533507394E-011
 0.162546995503229E-011
 0.100751080925972E-011
 0.147257173009758E-011
 0.133127164845792E-011
 0.100000000000000E-011
 0.151007738742092E-011
 0.147676337524309E-011
 0.121730410451458E-011
 0.203376991190060E-009
 0.790471095834377E-009
 0.267030207275895E-009
 0.269888791161628E-009
 0.110504768710751E-007
 0.866508719587244E-007
 0.416375996253023E-008
 0.194728314013872E-007
 0.194346971276547E-002
 0.126155681585014E-001
 0.149220572387142E-001
 0.462243546102286E-002
 0.174340265059494E+001
 0.246510273444049E-001
 0.167782385700256E+001
 0.181699386991272E+001
 0.117609175438463E+000
 0.159132266458629E-001
 0.656676998616641E-001
 0.127496021107727E+000
 0.868428271574368E+000
 0.322576067385101E-001
 0.380424445858753E+000
 0.350825459188934E+000
 0.279414197480261E-008
 0.595211204104206E-008
 0.191325258706991E-007
 0.505573682416287E-008
 0.174215099618299E-008
 0.573594447647484E-009
 0.397176327865015E-009
 0.568094793766052E-009
 0.153398595801022E-010
 0.167227711440898E-010
 0.137321965179281E-010
 0.151578115649661E-010
 0.100000000000000E-011
 0.118854579406799E-011
 0.146803422684913E-011
 0.105324187408690E-011
 0.344389185150606E-009
 0.487049860466909E-009
 0.835081998292789E-009
 0.456637019566851E-009
 0.943466003267399E-011
 0.718794960051422E-011
 0.108031251231977E-010
 0.907674028690142E-011
 0.100000000000000E-011
 0.100000000000000E-011
 0.100000000000000E-011
 0.100000000000000E-011
 0.100246963518981E-011
 0.100000000000000E-011
 0.100000000000000E-011
 0.100000000000000E-011
 0.100000000000000E-011
 0.100000000000000E-011
 0.100000000000000E-011
 0.100000000000000E-011
 0.100000000000000E-011
 0.100000000000000E-011
 0.100000000000000E-011
 0.100000000000000E-011
 0.196485412180914E-011
 0.432926985120174E-011
 0.261046121823967E-011
 0.257009896183387E-011
 0.100000000000000E-011
 0.122560035790710E-011
 0.100000000000000E-011
 0.101201646231319E-011
 0.100000000000000E-011
 0.100000000000000E-011
 0.100000000000000E-011
 0.100000000000000E-011
 0.680135546542837E-002
 0.110815589537025E+000
 0.462233817192560E-002
 0.126547203560460E-001
 0.100000000000000E-011
 0.100000000000000E-011
 0.100000000000000E-011
 0.100000000000000E-011
 0.100000000000000E-011
 0.100000000000000E-011
 0.100000000000000E-011
 0.100000000000000E-011
 0.414063608838088E-011
 0.364367559672886E-011
 0.489564546511838E-011
 0.416314344753916E-011
 0.100000000000000E-011
 0.100000000000000E-011
 0.100000000000000E-011
 0.100000000000000E-011
 0.190225358305506E-011
 0.262723244529134E-011
 0.201886478235053E-011
 0.213104578815181E-011
 0.121712588094371E-007
 0.280746785972077E-007
 0.339104712526805E-006
 0.140556245888418E-007
 0.240400481733178E+000
 0.203179328416489E-001
 0.156019755403077E-001
 0.204736049743821E-001
 0.793538960907842E-006
 0.107297554607688E-004
 0.154590638444482E-003
 0.347750759636803E-005
 0.130337088250755E-001
 0.326043021530544E-001
 0.160696123015589E-002
 0.459077697039394E-002
 0.274958624004442E-001
 0.271240822628466E-001
 0.142557473597870E-001
 0.199650162719702E-001
 0.344156945208917E+000
 0.134149689888519E+000
 0.168616712592819E+000
 0.222604356979917E+000
 0.188600761730209E+001
 0.505515257041138E+000
 0.301833069503576E+001
 0.126904091898456E+001
 0.100000000000000E-011
 0.100000000000000E-011
 0.100000000000000E-011
 0.100000000000000E-011
 0.124656002101947E+000
 0.149792198666282E+000
 0.739086578515901E+000
 0.160652058851967E+000
 0.510643335311229E-001
 0.448897165715683E-001
 0.146733881900982E-001
 0.260350275645414E-001
 0.934056446122753E-010
 0.168393560201625E-009
 0.123134596189147E-009
 0.124182917091748E-009
 0.216187368962346E-009
 0.115266880262702E-009
 0.747695562953004E-010
 0.120633597904757E-009
 0.667739311953371E-010
 0.768888217845519E-010
 0.960814288760659E-010
 0.774510996366834E-010
 0.114389587543003E-010
 0.109612799032459E-010
 0.140191995173419E-010
 0.117566740757564E-010
 0.403122170298633E-009
 0.382776351017976E-009
 0.176609671619402E-009
 0.370982548307165E-009
 0.100000000000000E-011
 0.100000000000000E-011
 0.100000000000000E-011
 0.100000000000000E-011
 0.100000000000000E-011
 0.100000000000000E-011
 0.100000000000000E-011
 0.100000000000000E-011
 0.100000000000000E-011
 0.100000000000000E-011
 0.100000000000000E-011
 0.100000000000000E-011
 0.100000000000000E-011
 0.100000000000000E-011
 0.100000000000000E-011
 0.100000000000000E-011
 0.100000000000000E-011
 0.100000000000000E-011
 0.100000000000000E-011
 0.100000000000000E-011
 0.100000000000000E-011
 0.100000000000000E-011
 0.100000000000000E-011
 0.100000000000000E-011
 0.629615000425763E-001
 0.157468192585070E+000
 0.444848061987474E-001
 0.849363805663754E-001
 0.102613535868954E+000
 0.122747328598600E-001
 0.217622055676641E-001
 0.795816016965041E-001
 0.155216852216343E-001
 0.504714139530680E-001
 0.306834583706770E-001
 0.135322113697387E-001
 0.310110693471879E-001
 0.324072624684681E-001
 0.121822062144613E-001
 0.213695463891770E-001
 0.204309075905855E-002
 0.200553558749631E-002
 0.150183111411560E-001
 0.838541390679337E-002
 0.791005753261085E-002
 0.305811595913521E-002
 0.256418983199249E-002
 0.121388552312812E-001
 0.220135606300852E+000
 0.482453942009915E+000
 0.666414717625511E+000
 0.119676054681536E+000
 0.117718972326515E-001
 0.335380101921965E-002
 0.694204716322052E-002
 0.374846747269893E-002
 0.191627104573515E-001
 0.991701092030406E-001
 0.112340645755087E-002
 0.786595966652563E-001
 0.212853103828805E+000
 0.923322860209251E-002
 0.381268999199362E-001
 0.133248664035102E-001
 0.178770672213046E-001
 0.135214451495473E-001
 0.550785592989765E-001
 0.359944140294454E-002
 0.142471458629907E-001
 0.120609006751238E-001
 0.292497644778026E-001
 0.174198918503854E-002
 0.638878218007890E-002
 0.229276717146761E-002
 0.818592701768204E-002
 0.489638374666650E-002
 0.612173425967333E-001
 0.829237846366457E+000
 0.649574674624064E+000
 0.898492984689477E+000
 0.504252438887408E-001
 0.194336849854801E-001
 0.737396771264997E-001
 0.274364435059029E-001
 0.308029589800844E+001
 0.763505373866542E+000
 0.253470187121488E+001
 0.236516751347917E+001
 0.140465658451227E+000
 0.698577844170315E-001
 0.800851553225229E-002
 0.361839444467169E-001
 0.546900866762863E-001
 0.684530990226468E+000
 0.522231415595009E-001
 0.644424550903983E-001
 0.205863774867417E-001
 0.506240730969855E-001
 0.291081077744298E-001
 0.760367771728557E-001
 0.419406702657994E-001
 0.734941666738573E-002
 0.328157051044632E-002
 0.417461951548564E-002
 0.812033045649493E-002
 0.780462223950935E-002
 0.902981739544753E-002
 0.635420477584435E-005
 0.734505699275521E-001
 0.170676411563597E+000
 0.104150140617238E+000
 0.373473771317350E-001
 0.777751608857682E+000
 0.121580571513598E+000
 0.938102728444060E+000
 0.111159927340771E+001
 0.592497985563949E-001
 0.134704349898730E+000
 0.150917350839534E+000
 0.989395787598039E-001
 0.951569711990145E-001
 0.140716150289314E+001
 0.687473996838817E-001
 0.604332196512542E-001
 0.770477542077741E+000
 0.150051224088553E+000
 0.402005562087252E+001
 0.265775568370826E+001
 0.131684180264100E-001
 0.737014935798031E-003
 0.300110931496523E-001
 0.242490599592271E-001
 0.323392349986082E-002
 0.124495098517857E-001
 0.654874398553444E-001
 0.467588662705075E-002
 0.108717955764405E-001
 0.142423768939491E-002
 0.107276892559860E+000
 0.703495362440940E-002
 0.276195070626445E-001
 0.430809502282615E+001
 0.326446621993121E-001
 0.542897973909974E-001
 0.182188443018520E-001
 0.492805122471613E-001