# vtk DataFile Version 3.0
Unstructured Grid
ASCII
DATASET UNSTRUCTURED_GRID
FIELD FieldData 1
TIME 1 1 float
  0.109739E+01
POINTS         2102 double
 0.000000000000000E+000 0.000000000000000E+000 0.000000000000000E+000
 0.100000000000000E+001 0.000000000000000E+000 0.000000000000000E+000
 0.100000000000000E+001 0.100000000000000E+001 0.000000000000000E+000
 0.000000000000000E+000 0.100000000000000E+001 0.000000000000000E+000
 0.125000000000000E+000 0.250000000000000E+000 0.000000000000000E+000
 0.375000000000000E+000 0.250000000000000E+000 0.000000000000000E+000
 0.375000000000000E+000 0.750000000000000E+000 0.000000000000000E+000
 0.125000000000000E+000 0.750000000000000E+000 0.000000000000000E+000
 0.625000000000000E+000 0.250000000000000E+000 0.000000000000000E+000
 0.875000000000000E+000 0.250000000000000E+000 0.000000000000000E+000
 0.875000000000000E+000 0.750000000000000E+000 0.000000000000000E+000
 0.625000000000000E+000 0.750000000000000E+000 0.000000000000000E+000
 0.100000000000000E+001 0.500000000000000E+000 0.000000000000000E+000
 0.000000000000000E+000 0.500000000000000E+000 0.000000000000000E+000
 0.500000000000000E+000 0.000000000000000E+000 0.000000000000000E+000
 0.125000000000000E+000 0.500000000000000E+000 0.000000000000000E+000
 0.000000000000000E+000 0.750000000000000E+000 0.000000000000000E+000
 0.000000000000000E+000 0.250000000000000E+000 0.000000000000000E+000
 0.000000000000000E+000 0.875000000000000E+000 0.000000000000000E+000
 0.000000000000000E+000 0.125000000000000E+000 0.000000000000000E+000
 0.000000000000000E+000 0.812500000000000E+000 0.000000000000000E+000
 0.625000000000000E-001 0.812500000000000E+000 0.000000000000000E+000
 0.125000000000000E+000 0.375000000000000E+000 0.000000000000000E+000
 0.000000000000000E+000 0.375000000000000E+000 0.000000000000000E+000
 0.125000000000000E+000 0.625000000000000E+000 0.000000000000000E+000
 0.312500000000000E-001 0.781250000000000E+000 0.000000000000000E+000
 0.000000000000000E+000 0.625000000000000E+000 0.000000000000000E+000
 0.781250000000000E-001 0.765625000000000E+000 0.000000000000000E+000
 0.312500000000000E-001 0.843750000000000E+000 0.000000000000000E+000
 0.500000000000000E+000 0.100000000000000E+001 0.000000000000000E+000
 0.852352799227800E-001 0.850726351351351E+000 0.000000000000000E+000
 0.531250000000000E-001 0.896875000000000E+000 0.000000000000000E+000
 0.128125000000000E+000 0.862500000000000E+000 0.000000000000000E+000
 0.125000000000000E+000 0.100000000000000E+001 0.000000000000000E+000
 0.250000000000000E+000 0.750000000000000E+000 0.000000000000000E+000
 0.000000000000000E+000 0.937500000000000E+000 0.000000000000000E+000
 0.250000000000000E+000 0.100000000000000E+001 0.000000000000000E+000
 0.117915518486872E+000 0.805415518486872E+000 0.000000000000000E+000
 0.201656717908302E+000 0.819893736067327E+000 0.000000000000000E+000
 0.181985294117647E-001 0.906250000000000E+000 0.000000000000000E+000
 0.157158578892515E+000 0.827852167423944E+000 0.000000000000000E+000
 0.187500000000000E+000 0.750000000000000E+000 0.000000000000000E+000
 0.190370748034901E+000 0.885171153579592E+000 0.000000000000000E+000
 0.173219498992632E+000 0.789273026175030E+000 0.000000000000000E+000
 0.125000000000000E+000 0.687500000000000E+000 0.000000000000000E+000
 0.000000000000000E+000 0.687500000000000E+000 0.000000000000000E+000
 0.441080729166667E-001 0.732584635416667E+000 0.000000000000000E+000
 0.625000000000000E-001 0.100000000000000E+001 0.000000000000000E+000
 0.324539302647226E+000 0.874753539998500E+000 0.000000000000000E+000
 0.138239725210285E+000 0.931515391482052E+000 0.000000000000000E+000
 0.218750000000000E+000 0.780050991479902E+000 0.000000000000000E+000
 0.282595248614805E+000 0.815169690490412E+000 0.000000000000000E+000
 0.241894668607517E+000 0.813568527927710E+000 0.000000000000000E+000
 0.259830219207979E+000 0.875750318441249E+000 0.000000000000000E+000
 0.375000000000000E+000 0.687500000000000E+000 0.000000000000000E+000
 0.894072114981556E-001 0.718750000000000E+000 0.000000000000000E+000
 0.156250000000000E+000 0.718750000000000E+000 0.000000000000000E+000
 0.171875000000000E+000 0.671875000000000E+000 0.000000000000000E+000
 0.208984375000000E+000 0.705078125000000E+000 0.000000000000000E+000
 0.187500000000000E+000 0.100000000000000E+001 0.000000000000000E+000
 0.100742481264918E+000 0.901762004578004E+000 0.000000000000000E+000
 0.897955050140944E-001 0.954063112745616E+000 0.000000000000000E+000
 0.454072994832874E-001 0.943019090840959E+000 0.000000000000000E+000
 0.312500000000000E-001 0.978320013898389E+000 0.000000000000000E+000
 0.151802024837252E+000 0.894278844061106E+000 0.000000000000000E+000
 0.312500000000000E+000 0.750000000000000E+000 0.000000000000000E+000
 0.349824395642442E+000 0.812398913150492E+000 0.000000000000000E+000
 0.291845278223558E+000 0.853213315943310E+000 0.000000000000000E+000
 0.312500000000000E+000 0.100000000000000E+001 0.000000000000000E+000
 0.221920040905101E+000 0.857011448773234E+000 0.000000000000000E+000
 0.610875609743251E-001 0.656250000000000E+000 0.000000000000000E+000
 0.575501251937821E-001 0.695518883967223E+000 0.000000000000000E+000
 0.229414059980049E+000 0.912264575939035E+000 0.000000000000000E+000
 0.267409472953924E+000 0.912989160289387E+000 0.000000000000000E+000
 0.247617500704634E+000 0.954276202159214E+000 0.000000000000000E+000
 0.186156415773925E+000 0.932922904662876E+000 0.000000000000000E+000
 0.161177138586098E+000 0.966975254724362E+000 0.000000000000000E+000
 0.281250000000000E+000 0.775106270475024E+000 0.000000000000000E+000
 0.232477697233870E+000 0.641481728091557E+000 0.000000000000000E+000
 0.375000000000000E+000 0.500000000000000E+000 0.000000000000000E+000
 0.343750000000000E+000 0.773669964712841E+000 0.000000000000000E+000
 0.500000000000000E+000 0.836710937419870E+000 0.000000000000000E+000
 0.625000000000000E-001 0.460493798860530E+000 0.000000000000000E+000
 0.225506433867106E-001 0.656250000000000E+000 0.000000000000000E+000
 0.625000000000000E-001 0.578156919744020E+000 0.000000000000000E+000
 0.100683627400278E+000 0.656250000000000E+000 0.000000000000000E+000
 0.808855941873017E-001 0.617548766045778E+000 0.000000000000000E+000
 0.396623706279028E-001 0.612802597169787E+000 0.000000000000000E+000
 0.000000000000000E+000 0.562500000000000E+000 0.000000000000000E+000
 0.209099082089092E+000 0.966015356758449E+000 0.000000000000000E+000
 0.208176344887401E+000 0.668642063067022E+000 0.000000000000000E+000
 0.375000000000000E+000 0.625000000000000E+000 0.000000000000000E+000
 0.281250000000000E+000 0.727693574222975E+000 0.000000000000000E+000
 0.410395729589754E-001 0.531250000000000E+000 0.000000000000000E+000
 0.243044505147503E+000 0.715165207256627E+000 0.000000000000000E+000
 0.427668699245901E+000 0.807527989856971E+000 0.000000000000000E+000
 0.375000000000000E+000 0.100000000000000E+001 0.000000000000000E+000
 0.396556497766215E+000 0.872516538744482E+000 0.000000000000000E+000
 0.125000000000000E+000 0.562500000000000E+000 0.000000000000000E+000
 0.386020873411304E-001 0.491878123024719E+000 0.000000000000000E+000
 0.837862679783012E-001 0.496009823563561E+000 0.000000000000000E+000
 0.181474703505393E+000 0.615400296494607E+000 0.000000000000000E+000
 0.156642498481761E+000 0.640232501518239E+000 0.000000000000000E+000
 0.148741293073547E+000 0.593750000000000E+000 0.000000000000000E+000
 0.198570897886273E+000 0.531250000000000E+000 0.000000000000000E+000
 0.186280074550956E+000 0.572564766212389E+000 0.000000000000000E+000
 0.261115628859886E+000 0.572342169151976E+000 0.000000000000000E+000
 0.223664380580028E+000 0.561200712513239E+000 0.000000000000000E+000
 0.260913847788851E+000 0.504504802962447E+000 0.000000000000000E+000
 0.220403809070327E+000 0.602182935170118E+000 0.000000000000000E+000
 0.280942357260745E+000 0.670965807217831E+000 0.000000000000000E+000
 0.303530083216233E+000 0.699208028468857E+000 0.000000000000000E+000
 0.244300952472090E+000 0.677895460994186E+000 0.000000000000000E+000
 0.278676255979588E+000 0.620116626474426E+000 0.000000000000000E+000
 0.375000000000000E+000 0.562500000000000E+000 0.000000000000000E+000
 0.294783395930685E+000 0.587081428049465E+000 0.000000000000000E+000
 0.296390010773290E+000 0.538188197482711E+000 0.000000000000000E+000
 0.326808615275446E+000 0.623140446700340E+000 0.000000000000000E+000
 0.375000000000000E+000 0.375000000000000E+000 0.000000000000000E+000
 0.341600259444201E+000 0.531250000000000E+000 0.000000000000000E+000
 0.337040360926244E+000 0.581802448479955E+000 0.000000000000000E+000
 0.313454820588085E+000 0.656240056545723E+000 0.000000000000000E+000
 0.244117968371280E+000 0.386059455330322E+000 0.000000000000000E+000
 0.316730626055850E+000 0.471195859600445E+000 0.000000000000000E+000
 0.343361747898823E+000 0.718361747898823E+000 0.000000000000000E+000
 0.387582141166944E+000 0.791354577928815E+000 0.000000000000000E+000
 0.394629419637968E+000 0.831652479273046E+000 0.000000000000000E+000
 0.359139968398398E+000 0.852480346691833E+000 0.000000000000000E+000
 0.449407668689709E+000 0.857876667231944E+000 0.000000000000000E+000
 0.504433083654504E+000 0.918355468709935E+000 0.000000000000000E+000
 0.438910290808154E+000 0.922698775777408E+000 0.000000000000000E+000
 0.487684842153978E+000 0.878322236197629E+000 0.000000000000000E+000
 0.750000000000000E+000 0.100000000000000E+001 0.000000000000000E+000
 0.429264219376497E+000 0.887875644335434E+000 0.000000000000000E+000
 0.297282757956014E+000 0.952697072250340E+000 0.000000000000000E+000
 0.308758340495749E+000 0.912972519020668E+000 0.000000000000000E+000
 0.353713070703707E+000 0.947478792032462E+000 0.000000000000000E+000
 0.343750000000000E+000 0.982091257636542E+000 0.000000000000000E+000
 0.437500000000000E+000 0.100000000000000E+001 0.000000000000000E+000
 0.386196294810884E+000 0.916319687483247E+000 0.000000000000000E+000
[...]
CELL_DATA         4076
SCALARS tdens double 1
LOOKUP_TABLE default
 0.489933768298307E-002
 0.569231564766551E-002
 0.671962822607787E-002
 0.580628421612270E-002
 0.610149018279630E-001
 0.530708139504214E-001
 0.519068275029034E-001
 0.552794645362232E-001
 0.138717793013410E+000
 0.150570275021778E+000
 0.165678353547549E+000
 0.151652300608997E+000
 0.542356558005539E-002
 0.721667722349579E-002
 0.687432522757517E-002
 0.629625841988629E-002
 0.842654336967436E-002
 0.104636614644387E-001
 0.103273594464132E-001
 0.958295162550079E-002
 0.101235118856249E-001
 0.118091816554243E-001
 0.114465647769422E-001
 0.109702821302863E-001
 0.722276020964389E-001
 0.605666223783196E-001
 0.654792698418559E-001
 0.692124313730558E-001
 0.600548054590051E-001
 0.715861419567820E-001
 0.676418060611605E-001
 0.662448417637670E-001
 0.795263696043859E-001
 0.714614694278116E-001
 0.763429449983497E-001
 0.754866287518405E-001
 0.722580241568831E-002
 0.779330224587840E-002
 0.769755184054024E-002
 0.760875502371257E-002
 0.269298448063128E-001
 0.256157017128542E-001
 0.242577614390944E-001
 0.256772843002268E-001
 0.159465960709049E+000
 0.143647624651592E+000
 0.134944241905402E+000
 0.148493256662813E+000
 0.443263246227915E-002
 0.493020381510219E-002
 0.603381068379498E-002
 0.496796437826976E-002
 0.910085473207047E-001
 0.100379431124574E+000
 0.993858188442582E-001
 0.986307624466126E-001
 0.384309674870095E-001
 0.355397177420360E-001
 0.358544581645004E-001
 0.367624948383846E-001
 0.405317581855839E-001
 0.354307568561257E-001
 0.321936180739342E-001
 0.358303883641521E-001
 0.880584615569323E-002
 0.965593971102752E-002
 0.113829227629881E-001
 0.100764300000920E-001
 0.160191095642440E-001
 0.149144623133668E-001
 0.124639887222234E-001
 0.140612952025550E-001
 0.343910188965025E-002
 0.327305822936821E-002
 0.574749358304172E-002
 0.421711310179701E-002
 0.108535186630371E+000
 0.116849545990479E+000
 0.984216573422059E-001
 0.107000346209625E+000
 0.573505845016695E-001
 0.415353562815086E-001
 0.546024457962254E-001
 0.498604978268258E-001
 0.751420012851977E-002
 0.819336421116956E-002
 0.808435921932521E-002
 0.796497780426595E-002
 0.503221225869775E-001
 0.380552680532736E-001
 0.488515550127000E-001
 0.451150275111105E-001
 0.820060529920346E-002
 0.739597246248483E-002
 0.815497230874427E-002
 0.769663212488816E-002
 0.335487542681009E-001
 0.485531978305229E-001
 0.355098661844357E-001
 0.384591169131354E-001
 0.318196736589661E-001
 0.260955338215911E-001
 0.251880296571896E-001
 0.276222445704298E-001
 0.913905818707508E-002
 0.116845331716609E-001
 0.896006848381103E-002
 0.100042269242276E-001
 0.785930747707545E-001
 0.932206510711800E-001
 0.779950484574814E-001
 0.880475125459818E-001
 0.109633750412681E-001
 0.118241734247861E-001
 0.998004686940035E-002
 0.107704330309044E-001
 0.191323008340650E-001
 0.140664853304044E-001
 0.152510652344037E-001
 0.158880128199897E-001
 0.105896280322859E-001
 0.132474879415121E-001
 0.123742497239417E-001
 0.117890130063349E-001
 0.135348817477584E-001
 0.115132408131241E-001
 0.112892255003044E-001
 0.122668435246008E-001
 0.170398563485138E-001
 0.195892486159720E-001
 0.144711136121285E-001
 0.166257267378421E-001
 0.122648107878295E-001
 0.141916236818307E-001
 0.158279078516139E-001
 0.141070220118284E-001
 0.651717310772512E-002
 0.580205464424303E-002
 0.407693295544096E-002
 0.533499437226529E-002
 0.104568442478050E+000
 0.103473225848993E+000
 0.105990689442755E+000
 0.105585166530332E+000
 0.172745884243840E-001
 0.137477325963693E-001
 0.195440536981322E-001
 0.163548246169815E-001
 0.599220159116875E-002
 0.516596016030973E-002
 0.647466107833908E-002
 0.586823467154260E-002
 0.112429728682202E-001
 0.996702281596908E-002
 0.118039918960615E-001
 0.108353987399515E-001
 0.891498402481042E-002
 0.852474602161571E-002
 0.839563546023170E-002
 0.857673689806710E-002
 0.896564912120749E-002
 0.870966421891721E-002
 0.102295356319132E-001
 0.926698201800005E-002
 0.148836539349257E-001
 0.129912049687896E-001
 0.184076363577420E-001
 0.150138063944619E-001
 0.686697737413267E-002
 0.763178477438468E-002
 0.654137670265061E-002
 0.715038097717013E-002
 0.193818456172186E-002
 0.122228552640862E-002
 0.158240363190301E-002
 0.163396326638431E-002
 0.369717863145232E-001
 0.402408008895484E-001
 0.400924397624315E-001
 0.388100887239208E-001
 0.259961372315674E-002
 0.359157396645163E-002
 0.415833405389143E-002
 0.334256599392939E-002
 0.636473800975906E-001
 0.695810406616616E-001
 0.523443900784513E-001
 0.610295361851351E-001
 0.261927175833744E-001
 0.174991752112573E-001
 0.234734279078999E-001
 0.219907611837021E-001
 0.978331296692619E-002
 0.113474535123653E-001
 0.126177010191788E-001
 0.111099057571116E-001
 0.726100808299075E-002
 0.642108465645945E-002
 0.537442629782446E-002
 0.620131076200044E-002
 0.736706416469798E-002
 0.820431258726107E-002
 0.946495704862154E-002
 0.840001477794692E-002
 0.561733179389083E-002
 0.471316074267820E-002
 0.468399104105078E-002
 0.483748505024564E-002
 0.334595566420508E-001
 0.320882135773679E-001
 0.436745328566394E-001
 0.368200832415242E-001
 0.522548995657494E-002
 0.603123060853753E-002
 0.697747884774753E-002
 0.618159176764031E-002
 0.407237210103956E-002
 0.349686463532617E-002
 0.406172662054904E-002
 0.398231675228615E-002
 0.316308684420617E-001
 0.458700618011347E-001
 0.325780496772217E-001
 0.370870512257395E-001
 0.116383594217908E-001
 0.131954492136426E-001
 0.105125941266761E-001
 0.117190262916668E-001
 0.685488172203833E-002
 0.818733288473936E-002
 0.790899587203597E-002
 0.743359687723024E-002
 0.108631946102886E-001
 0.944238468650000E-002
 0.124853295708586E-001
 0.107156994412844E-001
 0.554132274490927E-002
 0.422035178171023E-002
 0.452797505597504E-002
 0.484414565897397E-002
 0.250064244747636E-002
 0.379612722513560E-002
 0.319485334288756E-002
 0.313160752057610E-002
 0.208524770657678E-001
 0.268491333567580E-001
 0.260807089238679E-001
 0.243055580700615E-001
 0.169857206342539E-001
 0.185372499497026E-001
 0.228727210410667E-001
 0.195628949690664E-001
 0.589600346289148E-001
 0.700316566720547E-001
 0.530250073604711E-001
 0.603033673827328E-001
 0.328740782555867E-001
 0.344604879481968E-001
 0.471799365844120E-001
 0.373139320280777E-001
 0.370020888898175E-001
 0.316515299944183E-001
 0.410969120641612E-001
 0.364167749342528E-001
 0.857214811881416E-002
 0.101662802795781E-001
 0.104237241894685E-001
 0.959263788771303E-002
 0.167138047011242E-001
 0.239617584678265E-001
 0.185943983089051E-001
 0.197712377953531E-001
 0.451366737576123E-001
 0.357801297848396E-001
 0.489047737823570E-001
 0.430887732557124E-001
 0.566348594967603E-002
 0.640952103282388E-002
 0.692500275011654E-002
 0.633886102320712E-002
 0.102357666341924E-001
 0.887616398674928E-002
 0.937765471838108E-002
 0.951185223215095E-002
 0.862598718167159E-002
 0.835311159668498E-002
 0.792992243164073E-002
 0.833578542864153E-002
 0.110818235906313E-001
 0.954906954824262E-002
 0.956415003168678E-002
 0.101418363828389E-001
 0.297283797665057E-002
 0.400304605624233E-002
 0.364386376850987E-002
 0.341059184254026E-002
 0.213957989383198E-002
 0.286945701279159E-002
 0.240679508570849E-002
 0.231366771187843E-002
 0.357646939288570E-001
 0.366389797707584E-001
 0.465095817634294E-001
 0.391924275039975E-001
 0.250120975426268E-001
 0.221885868560748E-001
 0.244254474660285E-001
 0.238381574946196E-001
 0.119385814556506E-001
 0.146349933220561E-001
 0.120860903478179E-001
 0.130598475819105E-001
 0.148473629340009E-001
 0.115043873595672E-001
 0.116039217407055E-001
 0.127831875120400E-001
 0.574626788444328E-001
 0.429935444658138E-001
 0.483779467552953E-001
 0.490319518548212E-001
 0.319039975871390E-001
 0.400717093169177E-001
 0.304151682391395E-001
 0.338871352676296E-001
 0.849992899605514E-001
 0.947565083538074E-001
 0.999727169347530E-001
 0.929939932019956E-001
 0.378049049499483E-001
 0.411277987357866E-001
 0.356710526139233E-001
 0.383039671709832E-001
 0.648088134953892E-001
 0.549281341600019E-001
 0.706415823884906E-001
 0.633448805614217E-001
 0.327639037087770E-001
 0.280831913916348E-001
 0.342191462006540E-001
 0.311414846113396E-001
 0.260084530623000E-001
 0.260880011858682E-001
 0.301695893034635E-001
 0.277059823700341E-001
 0.240204383896904E-001
 0.222370135516906E-001
 0.181002101013974E-001
 0.208853223834135E-001
 0.465279470717337E+000
 0.449484266618477E+000
 0.536798863576773E+000
 0.505627859580583E+000
 0.970659078019613E-001
 0.104050985269650E+000
 0.109826570862841E+000
 0.105212685053522E+000
 0.125897487050110E-001
 0.133913240285684E-001
 0.172569235535051E-001
 0.143588860813613E-001
 0.734846144793068E-002
 0.697146018065073E-002
 0.817445447527120E-002
 0.758112566439097E-002
 0.752290410832374E-001
 0.715654586868070E-001
 0.551856107032072E-001
 0.624698685774944E-001
 0.235822549761243E-001
 0.182050873531833E-001
 0.269845311011303E-001
 0.220307729510923E-001
 0.106836919714670E-001
 0.147398414015466E-001
 0.136393908145208E-001
 0.116500737903396E-001
 0.258944658751946E-001
 0.168769233512920E-001
 0.251636050706920E-001
 0.227912797853664E-001
 0.107929222269485E+000
 0.987579384484375E-001
 0.111874683114074E+000
 0.107361660161962E+000
 0.579150997912485E-001
 0.550085945050620E-001
 0.631322663766753E-001
 0.563415469211749E-001
 0.802566107108149E-002
 0.985979062963693E-002
 0.817553343976787E-002
 0.868226133531916E-002
 0.998822004796330E-002
 0.782198421286161E-002
 0.100636594366047E-001
 0.908614081313863E-002
 0.486364985933633E-002
 0.621840928556976E-002
 0.672708009077349E-002
 0.572932290146334E-002
 0.483903634451971E-002
 0.436984313607478E-002
 0.610644943093663E-002
 0.527263341376439E-002
 0.126771611126812E-002
 0.194771979319289E-002
 0.160654276638088E-002
 0.164841214006667E-002
 0.382539018462039E-002
 0.278920132662973E-002
 0.318848644150156E-002
 0.333455911547092E-002
 0.214056461767988E-002
 0.241678004926389E-002
 0.317416489287879E-002
 0.249935652188715E-002
 0.133427947034560E-002
 0.400041691647896E-003
 0.956977696898412E-003
 0.809772524020448E-003
 0.125587962898889E-002
 0.898550342031981E-003
 0.368672741335914E-003
 0.720807015770467E-003
 0.156541435924321E-001
 0.127124053847453E-001
 0.148116138123925E-001
 0.141271128004534E-001
 0.718649089996049E-002
 0.922546111720209E-002
 0.772338328636394E-002
 0.814708701912697E-002
 0.870450875705781E-001
 0.783961250480305E-001
 0.722477594225246E-001
 0.793087276106691E-001
 0.377417183376736E-001
 0.489057974804469E-001
 0.490381502476926E-001
 0.426156311121304E-001
 0.640661880383538E-001
 0.724095010364967E-001
 0.675315477059902E-001
 0.680626507094842E-001
 0.192947459612259E-001
 0.194321698790705E-001
 0.164789391201529E-001
 0.183331395289745E-001
 0.495149422137075E-001
 0.386134522323270E-001
 0.444057224967360E-001
 0.436097187489687E-001
 0.214518745210000E-001
 0.235805771871719E-001
 0.212288373586268E-001
 0.220246042477111E-001
 0.829287209385989E-003
 0.120525541655340E-002
 0.322548816202196E-003
 0.790763312221046E-003
 0.140711901784303E-002
 0.245432319734695E-002
 0.176461170204023E-002
 0.173058572902131E-002
 0.327840208473574E-001
 0.254857965121687E-001
 0.280529835568711E-001
 0.286849746539094E-001
 0.189958792571894E-001
 0.222445139240936E-001
 0.232172916453531E-001
 0.211697224870689E-001
 0.435615611279008E-002
 0.293202290625535E-002
 0.437332387336945E-002
 0.387362307477313E-002
 0.144425613178116E-001
 0.116892672378275E-001
 0.119173304453424E-001
 0.127274333534388E-001
 0.787912453170611E-002
 0.879672319202543E-002
 0.889674660264019E-002
 0.838203133385555E-002
 0.921434182044241E-002
 0.852714717944025E-002
 0.995076191866082E-002
 0.923403445583349E-002
 0.202608324244676E-001
 0.172757038403117E-001
 0.165273400461980E-001
 0.181608776838354E-001
 0.206982568303884E-001
 0.186696398155214E-001
 0.226534129688104E-001
 0.206389121473221E-001
 0.317162161005042E-001
 0.276546675916889E-001
 0.319593141685676E-001
 0.298507273435562E-001
 0.186054051884432E-001
 0.155718058575611E-001
 0.162026420000657E-001
 0.167233919645819E-001
 0.171606902577499E-001
 0.191666049198814E-001
 0.164925066520765E-001
 0.175625734084193E-001
 0.130590531888929E-001
 0.155967524888899E-001
 0.151221979117561E-001
 0.143085785623604E-001
 0.106067370626176E-001
 0.108881250564746E-001
 0.893169745285929E-002
 0.100617653242957E-001
 0.818636571493488E-002
 0.599951979755023E-002
 0.746137204069669E-002
 0.716814426843370E-002
 0.581266052238412E-002
 0.709403524321372E-002
 0.731046087401976E-002
 0.628930860362229E-002
 0.425094672793878E-001
 0.560127477809923E-001
 0.459562656309490E-001
 0.479529972065007E-001
 0.793965892233408E-001
 0.874041963215933E-001
 0.722508196075619E-001
 0.797709032227693E-001
 0.822143285810065E-001
 0.848540542866974E-001
 0.905800322040359E-001
 0.869789518681825E-001
 0.119376157416797E+000
 0.107503856616806E+000
 0.917265995306504E-001
 0.100987615627199E+000
 0.320774750980584E-001
 0.285813249801375E-001
 0.236057840959545E-001
 0.267239303746400E-001
 0.644112929710283E-001
 0.526028086573102E-001
 0.449812732635811E-001
 0.550177765408080E-001
 0.749267855491347E-001
 0.804425501451691E-001
 0.931943331410572E-001
 0.818754931140669E-001
 0.664634773727022E-001
 0.560628634853846E-001
 0.507287628833401E-001
 0.580043249631103E-001
 0.264825714643041E-001
 0.280838182334148E-001
 0.263009995628069E-001
 0.267408690334848E-001
 0.781486160706694E-002
 0.821860830261665E-002
 0.974521732603736E-002
 0.865912494857888E-002
 0.537387747893003E-001
 0.561225752683292E-001
 0.627506994280066E-001
 0.574263017147428E-001
 0.197190893947896E-001
 0.172231477335877E-001
 0.197445966785652E-001
 0.188313940451374E-001
 0.603727953576214E-002
 0.518539566101003E-002
 0.525284398367263E-002
 0.536329583058616E-002
 0.855769570994062E-002
 0.712612051598677E-002
 0.789126407281332E-002
 0.774994407258295E-002
 0.537328031832920E-003
 0.141376288929177E-002
 0.155392316937770E-002
 0.105305705890194E-002
 0.332772358876047E-002
 0.210916836738739E-002
 0.204606686473531E-002
 0.257519987687116E-002
 0.119900156796873E-001
 0.147630886759307E-001
 0.129568264507150E-001
 0.133740279841708E-001
 0.783695971272117E-002
 0.955320602884198E-002
 0.812298227562856E-002
 0.858368539412774E-002
 0.706411294877525E-002
 0.639213300562686E-002
 0.569273078101442E-002
 0.645294605557595E-002
 0.215679357005257E-001
 0.382924173228698E-001
 0.341132339070367E-001
 0.281454166964135E-001
 0.487955395714427E-002
 0.627977299442510E-002
 0.515355231248983E-002
 0.551574586663295E-002
 0.585841727064585E-002
 0.697219741230369E-002
 0.733051459549962E-002
 0.659006800809336E-002
 0.140850131498233E-001
 0.125919840530550E-001
 0.145745351384143E-001
 0.138908261023649E-001
 0.439574081909765E-002
 0.282930508390640E-002
 0.402193293146762E-002
 0.352080543931240E-002
 0.861487708096970E-002
 0.105261222674841E-001
 0.932217120252747E-002
 0.946029965839792E-002
 0.178093962757336E+000
 0.179813499214379E+000
 0.263425449884949E+000
 0.196025245212559E+000
 0.360825200407932E-001
 0.438693857898433E-001
 0.320944650356985E-001
 0.400101158368722E-001
 0.191711745810767E+000
 0.178012323982833E+000
 0.218291090599766E+000
 0.195958531617891E+000
 0.100264150521677E+000
 0.947774415271020E-001
 0.903860876097802E-001
 0.922839231448718E-001
 0.736576946340454E-001
 0.814566533511742E-001
 0.782720616947023E-001
 0.763932433409958E-001
 0.130836246036125E+000
 0.113308357574645E+000
 0.112798712058496E+000
 0.116586299026793E+000
 0.168660389682138E+000
 0.148450318628768E+000
 0.142363120742709E+000
 0.152244918257145E+000
 0.249757553405531E-002
 0.207101659941328E-002
 0.334385556880453E-002
 0.252445910682952E-002
 0.655839030131514E-001
 0.545800514680628E-001
 0.546812836070415E-001
 0.583826101895309E-001
 0.660691244729752E-001
 0.570538993222158E-001
 0.692275607326072E-001
 0.635327304023952E-001
 0.420655550917956E-001
 0.475500334533991E-001
 0.451290321832751E-001
 0.447697292215206E-001
 0.474593634891245E-001
 0.417024817884231E-001
 0.369685215630402E-001
 0.419219225503404E-001
 0.394785987664431E-001
 0.403366301133229E-001
 0.430088008237472E-001
 0.408675353135528E-001
 0.234030755356490E-001
 0.219768581258810E-001
 0.247262939044190E-001
 0.233448733661129E-001
 0.581632253844053E-001
 0.576539826814932E-001
 0.496992022923809E-001
 0.549605142244030E-001
 0.389521518889581E-002
 0.362032552071242E-002
 0.247761322001360E-002
 0.325851696991463E-002
 0.286634367632704E-002
 0.347157284886645E-002
 0.220204983608559E-002
 0.290722182434750E-002
 0.113059891718806E-002
 0.791999127192836E-003
 0.268440183039322E-003
 0.543761733750997E-003
 0.154053473340330E-002
 0.235891707327260E-002
 0.258591128444229E-002
 0.210844344434250E-002
 0.482261981040818E-002
 0.669637402590536E-002
 0.485311363009557E-002
 0.538361940177545E-002
 0.596463468061241E-002
 0.680364791413925E-002
 0.494429015752154E-002
 0.608509924422554E-002
 0.175219781367199E-001
 0.285346988654479E-001
 0.204577291926248E-001
 0.222514542390707E-001
 0.293643439193185E-001
 0.924859198591373E-002
 0.156233498985952E-001
 0.153821035002334E-001
 0.158268807147865E-001
 0.181480119560860E-001
 0.230099500248882E-001
 0.182832613630378E-001
 0.122837644044311E-001
 0.150276718026105E-001
 0.951885283324052E-002
 0.119766135495586E-001
 0.888791552650091E-002
 0.765123843887144E-002
 0.100328386281298E-001
 0.774681209754419E-002
 0.942516231693981E-002
 0.643848395302219E-002
 0.566197562496293E-002
 0.601920019646548E-002
 0.815782498713533E-001
 0.106498904264691E+000
 0.994137500295186E-001
 0.949676443555328E-001
 0.720007991137879E-001
 0.513583824570629E-001
 0.703091539196466E-001
 0.587132152878661E-001
 0.789744043171969E-002
 0.259633665696037E-001
 0.129007812550780E-001
 0.171532224885450E-001
 0.482311390738500E-001
 0.546653077338055E-001
 0.678794723596804E-001
 0.599983195417080E-001
 0.120413271370660E+000
 0.973297024456507E-001
 0.121123343426350E+000
 0.109295770437840E+000
 0.204635517200353E+000
 0.245461785732773E+000
 0.234190062119688E+000
 0.222178905555316E+000
 0.778750062122630E-001
 0.641507806223627E-001
 0.773467852670103E-001
 0.706955725601544E-001
 0.120557148771508E+000
 0.123750919419798E+000
 0.931346079769307E-001
 0.106052563264792E+000
 0.193202749203855E-001
 0.751615909003686E-002
 0.211465192079254E-001
 0.139733905979111E-001
 0.175926908969531E+000
 0.182114198135542E+000
 0.176497822950722E+000
 0.178741136884575E+000
 0.441681943624589E-001
 0.592154833455922E-001
 0.406144837054950E-001
 0.521685100917673E-001
 0.104127657337285E+000
 0.794399829198390E-001
 0.834704188740275E-001
 0.951887849287287E-001
 0.760993297316590E-001
 0.938692918524665E-001
 0.846453284321057E-001
 0.829710366618518E-001
 0.808064085129238E-001
 0.792552074977824E-001
 0.106804986883407E+000
 0.964108002172783E-001
 0.156228665518981E+000
 0.127671957369481E+000
 0.120451675219047E+000
 0.129389345078511E+000
 0.880824443118070E-001
 0.995286272957603E-001
 0.100676065384138E+000
 0.994544873218306E-001
 0.716055330515471E-001
 0.715227653645474E-001
 0.592740291093124E-001
 0.664640460201633E-001
 0.918311294349473E-001
 0.747733527616659E-001
 0.781397549486004E-001
 0.794059437177584E-001
 0.151633512223375E+000
 0.135601259553782E+000
 0.133288804716836E+000
 0.140689216832750E+000
 0.143953983573679E+000
 0.163089214967994E+000
 0.172990331909633E+000
 0.161282573301875E+000
 0.143177555829191E+000
 0.171334013805185E+000
 0.164549824450195E+000
 0.154669860296017E+000
 0.265372357991512E+000
 0.294125183818088E+000
 0.251258731452152E+000
 0.274450546504403E+000
 0.160650965349265E+000
 0.133366163831518E+000
 0.133700684310958E+000
 0.145790500974459E+000
 0.215337274591678E+000
 0.191649264408605E+000
 0.182653393126772E+000
 0.194436418760374E+000
 0.165033434136612E+000
 0.128779881940320E+000