# vtk DataFile Version 3.0
Unstructured Grid
ASCII
DATASET UNSTRUCTURED_GRID
FIELD FieldData 1
TIME 1 1 float
  0.320850E+01
POINTS         2102 double
 0.000000000000000E+000 0.000000000000000E+000 0.000000000000000E+000
 0.100000000000000E+001 0.000000000000000E+000 0.000000000000000E+000
 0.100000000000000E+001 0.100000000000000E+001 0.000000000000000E+000
 0.000000000000000E+000 0.100000000000000E+001 0.000000000000000E+000
 0.125000000000000E+000 0.250000000000000E+000 0.000000000000000E+000
 0.375000000000000E+000 0.250000000000000E+000 0.000000000000000E+000
 0.375000000000000E+000 0.750000000000000E+000 0.000000000000000E+000
 0.125000000000000E+000 0.750000000000000E+000 0.000000000000000E+000
 0.625000000000000E+000 0.250000000000000E+000 0.000000000000000E+000
 0.875000000000000E+000 0.250000000000000E+000 0.000000000000000E+000
 0.875000000000000E+000 0.750000000000000E+000 0.000000000000000E+000
 0.625000000000000E+000 0.750000000000000E+000 0.000000000000000E+000
 0.100000000000000E+001 0.500000000000000E+000 0.000000000000000E+000
 0.000000000000000E+000 0.500000000000000E+000 0.000000000000000E+000
 0.500000000000000E+000 0.000000000000000E+000 0.000000000000000E+000
 0.125000000000000E+000 0.500000000000000E+000 0.000000000000000E+000
 0.000000000000000E+000 0.750000000000000E+000 0.000000000000000E+000
 0.000000000000000E+000 0.250000000000000E+000 0.000000000000000E+000
 0.000000000000000E+000 0.875000000000000E+000 0.000000000000000E+000
 0.000000000000000E+000 0.125000000000000E+000 0.000000000000000E+000
 0.000000000000000E+000 0.812500000000000E+000 0.000000000000000E+000
 0.625000000000000E-001 0.812500000000000E+000 0.000000000000000E+000
 0.125000000000000E+000 0.375000000000000E+000 0.000000000000000E+000
 0.000000000000000E+000 0.375000000000000E+000 0.000000000000000E+000
 0.125000000000000E+000 0.625000000000000E+000 0.000000000000000E+000
 0.312500000000000E-001 0.781250000000000E+000 0.000000000000000E+000
 0.000000000000000E+000 0.625000000000000E+000 0.000000000000000E+000
 0.781250000000000E-001 0.765625000000000E+000 0.000000000000000E+000
 0.312500000000000E-001 0.843750000000000E+000 0.000000000000000E+000
 0.500000000000000E+000 0.100000000000000E+001 0.000000000000000E+000
 0.852352799227800E-001 0.850726351351351E+000 0.000000000000000E+000
 0.531250000000000E-001 0.896875000000000E+000 0.000000000000000E+000
 0.128125000000000E+000 0.862500000000000E+000 0.000000000000000E+000
 0.125000000000000E+000 0.100000000000000E+001 0.000000000000000E+000
 0.250000000000000E+000 0.750000000000000E+000 0.000000000000000E+000
 0.000000000000000E+000 0.937500000000000E+000 0.000000000000000E+000
 0.250000000000000E+000 0.100000000000000E+001 0.000000000000000E+000
 0.117915518486872E+000 0.805415518486872E+000 0.000000000000000E+000
 0.201656717908302E+000 0.819893736067327E+000 0.000000000000000E+000
 0.181985294117647E-001 0.906250000000000E+000 0.000000000000000E+000
 0.157158578892515E+000 0.827852167423944E+000 0.000000000000000E+000
 0.187500000000000E+000 0.750000000000000E+000 0.000000000000000E+000
 0.190370748034901E+000 0.885171153579592E+000 0.000000000000000E+000
 0.173219498992632E+000 0.789273026175030E+000 0.000000000000000E+000
 0.125000000000000E+000 0.687500000000000E+000 0.000000000000000E+000
 0.000000000000000E+000 0.687500000000000E+000 0.000000000000000E+000
 0.441080729166667E-001 0.732584635416667E+000 0.000000000000000E+000
 0.625000000000000E-001 0.100000000000000E+001 0.000000000000000E+000
 0.324539302647226E+000 0.874753539998500E+000 0.000000000000000E+000
 0.138239725210285E+000 0.931515391482052E+000 0.000000000000000E+000
 0.218750000000000E+000 0.780050991479902E+000 0.000000000000000E+000
 0.282595248614805E+000 0.815169690490412E+000 0.000000000000000E+000
 0.241894668607517E+000 0.813568527927710E+000 0.000000000000000E+000
 0.259830219207979E+000 0.875750318441249E+000 0.000000000000000E+000
 0.375000000000000E+000 0.687500000000000E+000 0.000000000000000E+000
 0.894072114981556E-001 0.718750000000000E+000 0.000000000000000E+000
 0.156250000000000E+000 0.718750000000000E+000 0.000000000000000E+000
 0.171875000000000E+000 0.671875000000000E+000 0.000000000000000E+000
 0.208984375000000E+000 0.705078125000000E+000 0.000000000000000E+000
 0.187500000000000E+000 0.100000000000000E+001 0.000000000000000E+000
 0.100742481264918E+000 0.901762004578004E+000 0.000000000000000E+000
 0.897955050140944E-001 0.954063112745616E+000 0.000000000000000E+000
 0.454072994832874E-001 0.943019090840959E+000 0.000000000000000E+000
 0.312500000000000E-001 0.978320013898389E+000 0.000000000000000E+000
 0.151802024837252E+000 0.894278844061106E+000 0.000000000000000E+000
 0.312500000000000E+000 0.750000000000000E+000 0.000000000000000E+000
 0.349824395642442E+000 0.812398913150492E+000 0.000000000000000E+000
 0.291845278223558E+000 0.853213315943310E+000 0.000000000000000E+000
 0.312500000000000E+000 0.100000000000000E+001 0.000000000000000E+000
 0.221920040905101E+000 0.857011448773234E+000 0.000000000000000E+000
 0.610875609743251E-001 0.656250000000000E+000 0.000000000000000E+000
 0.575501251937821E-001 0.695518883967223E+000 0.000000000000000E+000
 0.229414059980049E+000 0.912264575939035E+000 0.000000000000000E+000
 0.267409472953924E+000 0.912989160289387E+000 0.000000000000000E+000
 0.247617500704634E+000 0.954276202159214E+000 0.000000000000000E+000
 0.186156415773925E+000 0.932922904662876E+000 0.000000000000000E+000
 0.161177138586098E+000 0.966975254724362E+000 0.000000000000000E+000
 0.281250000000000E+000 0.775106270475024E+000 0.000000000000000E+000
 0.232477697233870E+000 0.641481728091557E+000 0.000000000000000E+000
 0.375000000000000E+000 0.500000000000000E+000 0.000000000000000E+000
 0.343750000000000E+000 0.773669964712841E+000 0.000000000000000E+000
 0.500000000000000E+000 0.836710937419870E+000 0.000000000000000E+000
 0.625000000000000E-001 0.460493798860530E+000 0.000000000000000E+000
 0.225506433867106E-001 0.656250000000000E+000 0.000000000000000E+000
 0.625000000000000E-001 0.578156919744020E+000 0.000000000000000E+000
 0.100683627400278E+000 0.656250000000000E+000 0.000000000000000E+000
 0.808855941873017E-001 0.617548766045778E+000 0.000000000000000E+000
 0.396623706279028E-001 0.612802597169787E+000 0.000000000000000E+000
 0.000000000000000E+000 0.562500000000000E+000 0.000000000000000E+000
 0.209099082089092E+000 0.966015356758449E+000 0.000000000000000E+000
 0.208176344887401E+000 0.668642063067022E+000 0.000000000000000E+000
 0.375000000000000E+000 0.625000000000000E+000 0.000000000000000E+000
 0.281250000000000E+000 0.727693574222975E+000 0.000000000000000E+000
 0.410395729589754E-001 0.531250000000000E+000 0.000000000000000E+000
 0.243044505147503E+000 0.715165207256627E+000 0.000000000000000E+000
 0.427668699245901E+000 0.807527989856971E+000 0.000000000000000E+000
 0.375000000000000E+000 0.100000000000000E+001 0.000000000000000E+000
 0.396556497766215E+000 0.872516538744482E+000 0.000000000000000E+000
 0.125000000000000E+000 0.562500000000000E+000 0.000000000000000E+000
 0.386020873411304E-001 0.491878123024719E+000 0.000000000000000E+000
 0.837862679783012E-001 0.496009823563561E+000 0.000000000000000E+000
 0.181474703505393E+000 0.615400296494607E+000 0.000000000000000E+000
 0.156642498481761E+000 0.640232501518239E+000 0.000000000000000E+000
 0.148741293073547E+000 0.593750000000000E+000 0.000000000000000E+000
 0.198570897886273E+000 0.531250000000000E+000 0.000000000000000E+000
 0.186280074550956E+000 0.572564766212389E+000 0.000000000000000E+000
 0.261115628859886E+000 0.572342169151976E+000 0.000000000000000E+000
 0.223664380580028E+000 0.561200712513239E+000 0.000000000000000E+000
 0.260913847788851E+000 0.504504802962447E+000 0.000000000000000E+000
 0.220403809070327E+000 0.602182935170118E+000 0.000000000000000E+000
 0.280942357260745E+000 0.670965807217831E+000 0.000000000000000E+000
 0.303530083216233E+000 0.699208028468857E+000 0.000000000000000E+000
 0.244300952472090E+000 0.677895460994186E+000 0.000000000000000E+000
 0.278676255979588E+000 0.620116626474426E+000 0.000000000000000E+000
 0.375000000000000E+000 0.562500000000000E+000 0.000000000000000E+000
 0.294783395930685E+000 0.587081428049465E+000 0.000000000000000E+000
 0.296390010773290E+000 0.538188197482711E+000 0.000000000000000E+000
 0.326808615275446E+000 0.623140446700340E+000 0.000000000000000E+000
 0.375000000000000E+000 0.375000000000000E+000 0.000000000000000E+000
 0.341600259444201E+000 0.531250000000000E+000 0.000000000000000E+000
 0.337040360926244E+000 0.581802448479955E+000 0.000000000000000E+000
 0.313454820588085E+000 0.656240056545723E+000 0.000000000000000E+000
 0.244117968371280E+000 0.386059455330322E+000 0.000000000000000E+000
 0.316730626055850E+000 0.471195859600445E+000 0.000000000000000E+000
 0.343361747898823E+000 0.718361747898823E+000 0.000000000000000E+000
 0.387582141166944E+000 0.791354577928815E+000 0.000000000000000E+000
 0.394629419637968E+000 0.831652479273046E+000 0.000000000000000E+000
 0.359139968398398E+000 0.852480346691833E+000 0.000000000000000E+000
 0.449407668689709E+000 0.857876667231944E+000 0.000000000000000E+000
 0.504433083654504E+000 0.918355468709935E+000 0.000000000000000E+000
 0.438910290808154E+000 0.922698775777408E+000 0.000000000000000E+000
 0.487684842153978E+000 0.878322236197629E+000 0.000000000000000E+000
 0.750000000000000E+000 0.100000000000000E+001 0.000000000000000E+000
 0.429264219376497E+000 0.887875644335434E+000 0.000000000000000E+000
 0.297282757956014E+000 0.952697072250340E+000 0.000000000000000E+000
 0.308758340495749E+000 0.912972519020668E+000 0.000000000000000E+000
 0.353713070703707E+000 0.947478792032462E+000 0.000000000000000E+000
 0.343750000000000E+000 0.982091257636542E+000 0.000000000000000E+000
 0.437500000000000E+000 0.100000000000000E+001 0.000000000000000E+000
 0.386196294810884E+000 0.916319687483247E+000 0.000000000000000E+000
[...]
CELL_DATA         4076
SCALARS tdens double 1
LOOKUP_TABLE default
 0.113015137586285E-002
 0.134909503946493E-002
 0.163071212248384E-002
 0.137066521560656E-002
 0.429673099814842E-001
 0.331021641522269E-001
 0.327954526901454E-001
 0.351189946080304E-001
 0.252879948245706E+000
 0.273854450807486E+000
 0.305565840105399E+000
 0.282338043818490E+000
 0.119884872022473E-002
 0.159476979409706E-002
 0.155364701730787E-002
 0.140209428933991E-002
 0.199491769373337E-002
 0.258334002414714E-002
 0.262002111510793E-002
 0.235432909507490E-002
 0.291822331320321E-002
 0.369383776037416E-002
 0.348788114409817E-002
 0.330970087450382E-002
 0.746500877926945E-001
 0.599811217578644E-001
 0.682942121126578E-001
 0.722238829565667E-001
 0.404297906667989E-001
 0.546206000185184E-001
 0.494901710335783E-001
 0.491070810121564E-001
 0.757112635127751E-001
 0.599807218975836E-001
 0.688081818246488E-001
 0.684317646485481E-001
 0.191913705847316E-002
 0.206884430061893E-002
 0.206358761227614E-002
 0.202828574579537E-002
 0.116193394031644E-001
 0.102841414820031E-001
 0.971496686171085E-002
 0.105172161863619E-001
 0.257660746826728E+000
 0.216882227872187E+000
 0.186913281495385E+000
 0.222761332709334E+000
 0.115603183670391E-002
 0.126638798244710E-002
 0.161541723157603E-002
 0.128899523636913E-002
 0.104470171343525E+000
 0.121209001732424E+000
 0.125641011368218E+000
 0.118750036812404E+000
 0.178882650475620E-001
 0.154392861134970E-001
 0.155697198869412E-001
 0.162503478936848E-001
 0.250289586273567E-001
 0.212246951966616E-001
 0.174411434929692E-001
 0.207556571849285E-001
 0.226575018309631E-002
 0.263931520176763E-002
 0.338886914167417E-002
 0.278479460054800E-002
 0.607684910357619E-002
 0.538961913763257E-002
 0.424728093103434E-002
 0.511995137430634E-002
 0.752172538734093E-003
 0.715639992315602E-003
 0.127286198177894E-002
 0.927405717679528E-003
 0.122044276710835E+000
 0.139268502626918E+000
 0.106363442771411E+000
 0.116495850780445E+000
 0.670675340407401E-001
 0.451658731987178E-001
 0.606500298967546E-001
 0.505776064032992E-001
 0.196242015003580E-002
 0.213569818001663E-002
 0.213432978790944E-002
 0.208807859500869E-002
 0.504767414672379E-001
 0.371820996909163E-001
 0.538353579378348E-001
 0.415896958413896E-001
 0.225018017721524E-002
 0.194207621745845E-002
 0.218132928497858E-002
 0.205780608636584E-002
 0.234532626265383E-001
 0.447704870764490E-001
 0.289747979030709E-001
 0.350243170133408E-001
 0.166065988808360E-001
 0.117853527112982E-001
 0.114442394813233E-001
 0.128013047920450E-001
 0.271061920779409E-002
 0.387949659825840E-002
 0.271814039809731E-002
 0.305843372819858E-002
 0.137393833174813E+000
 0.151604779457746E+000
 0.126017264530415E+000
 0.149671526740599E+000
 0.297559383411556E-002
 0.345672400068268E-002
 0.268268055900711E-002
 0.300863953403887E-002
 0.824292096311599E-002
 0.492167207801691E-002
 0.576948379917923E-002
 0.604370388375522E-002
 0.324312422003248E-002
 0.457745471015238E-002
 0.403790473477530E-002
 0.384482507023352E-002
 0.473402641801676E-002
 0.373376060349089E-002
 0.373879675253009E-002
 0.407326216848665E-002
 0.629535203337994E-002
 0.834906913656185E-002
 0.483081133495221E-002
 0.618404318165139E-002
 0.422294635806066E-002
 0.519806495347317E-002
 0.610481493977101E-002
 0.514312678663545E-002
 0.148641769734456E-002
 0.136487534152527E-002
 0.898892602713112E-003
 0.117792884297532E-002
 0.147893029366695E+000
 0.140819531564582E+000
 0.144403764086327E+000
 0.146903056205604E+000
 0.676400290918858E-002
 0.461041255965347E-002
 0.842714625426903E-002
 0.624985110000766E-002
 0.155187760838015E-002
 0.130470630939529E-002
 0.167663860059650E-002
 0.150712596888014E-002
 0.334493499661753E-002
 0.275650500753279E-002
 0.352872499850840E-002
 0.314456973490024E-002
 0.235955696288282E-002
 0.226663240379949E-002
 0.218303372039936E-002
 0.225312660282601E-002
 0.254755292890586E-002
 0.238475058777175E-002
 0.298533007117059E-002
 0.261314034585001E-002
 0.543882030071183E-002
 0.425900440021229E-002
 0.754775846276963E-002
 0.544647539106779E-002
 0.179619099558505E-002
 0.208987640998261E-002
 0.173051924996144E-002
 0.190108865592429E-002
 0.467945184896550E-003
 0.284452886685318E-003
 0.366719569858510E-003
 0.384262909423032E-003
 0.162713083635100E-001
 0.189763162597738E-001
 0.190501218988136E-001
 0.180312240974991E-001
 0.617212506460467E-003
 0.901787243574362E-003
 0.103617850226231E-002
 0.821270137705902E-003
 0.482205077842050E-001
 0.534106544469240E-001
 0.342880853716369E-001
 0.458897873935286E-001
 0.136242914277174E-001
 0.711045344629142E-002
 0.120561431909001E-001
 0.105111047665452E-001
 0.289723622896627E-002
 0.350801334584986E-002
 0.421505185881770E-002
 0.347357751436442E-002
 0.209091980450852E-002
 0.182964484339260E-002
 0.145971881688683E-002
 0.175468926978590E-002
 0.218318797685704E-002
 0.246968619277997E-002
 0.300254025875290E-002
 0.255059018611026E-002
 0.145859764010101E-002
 0.122146046409450E-002
 0.117811808231149E-002
 0.123730600752318E-002
 0.300549929161950E-001
 0.406719700983618E-001
 0.498055495348927E-001
 0.440915978993743E-001
 0.140160596464723E-002
 0.161117148197579E-002
 0.198012178533998E-002
 0.167862315159517E-002
 0.103800623168641E-002
 0.861648504037700E-003
 0.100622148089714E-002
 0.997130974596555E-003
 0.213530984182772E-001
 0.398514256597317E-001
 0.206246879262094E-001
 0.253651912889622E-001
 0.342775894075275E-002
 0.395447464861707E-002
 0.299900518419605E-002
 0.344743484584795E-002
 0.184854027995984E-002
 0.230600113792599E-002
 0.226618766623817E-002
 0.208011070627160E-002
 0.356382696540121E-002
 0.291545352970086E-002
 0.424068406709498E-002
 0.349673402961125E-002
 0.155224773831397E-002
 0.112429671658253E-002
 0.121561396131876E-002
 0.131199667108543E-002
 0.588477725230665E-003
 0.931597820077683E-003
 0.773556635440736E-003
 0.754551941061392E-003
 0.904252497770208E-002
 0.135497442400380E-001
 0.126162071687331E-001
 0.118733125436690E-001
 0.663585257320921E-002
 0.775155700710234E-002
 0.105202100849747E-001
 0.806075982458060E-002
 0.571905530421365E-001
 0.697533284366767E-001
 0.433450481019604E-001
 0.538452892566762E-001
 0.222418543501775E-001
 0.258515170951503E-001
 0.410508911949232E-001
 0.318727262032115E-001
 0.212276449413192E-001
 0.169200227621043E-001
 0.262201193487684E-001
 0.217021375265700E-001
 0.256395301068781E-002
 0.321465011341333E-002
 0.324008176509764E-002
 0.298384783762197E-002
 0.666899307099125E-002
 0.118810846468769E-001
 0.786139854139182E-002
 0.852033107286533E-002
 0.320137063796320E-001
 0.221619907185176E-001
 0.389309420612902E-001
 0.322111240344811E-001
 0.129310697794614E-002
 0.149758510615007E-002
 0.164370525364344E-002
 0.147539020811200E-002
 0.294565172666653E-002
 0.240683920181681E-002
 0.254766981471579E-002
 0.263037615540652E-002
 0.223263002455986E-002
 0.214010308204589E-002
 0.196616763959612E-002
 0.211764493294756E-002
 0.320664485689970E-002
 0.258153931182374E-002
 0.256664915426435E-002
 0.278880136912222E-002
 0.749951406715539E-003
 0.104468394807600E-002
 0.943524488315774E-003
 0.881062644564449E-003
 0.500836987005933E-003
 0.692420685122979E-003
 0.585110369288579E-003
 0.553132281633478E-003
 0.177771537192691E-001
 0.189681528167577E-001
 0.273658927332919E-001
 0.200333271562485E-001
 0.924627923993303E-002
 0.792237475975331E-002
 0.925965646335607E-002
 0.883499369659872E-002
 0.380320839361696E-002
 0.496799846686972E-002
 0.374757300736329E-002
 0.417761467398407E-002
 0.561124552902220E-002
 0.390900918458183E-002
 0.395657431242564E-002
 0.441714845039170E-002
 0.436877469444348E-001
 0.275070476412788E-001
 0.347853671005133E-001
 0.339066412287494E-001
 0.188020321543614E-001
 0.267173342859510E-001
 0.166895135763144E-001
 0.194187220337207E-001
 0.762477255901475E-001
 0.955492046974320E-001
 0.990706582880647E-001
 0.908983352525270E-001
 0.215614124317760E-001
 0.239595472766855E-001
 0.186306097357194E-001
 0.211131295282343E-001
 0.534871873869356E-001
 0.424830101235825E-001
 0.661426669673936E-001
 0.549858028828707E-001
 0.159402132769980E-001
 0.126900119073380E-001
 0.178238818907565E-001
 0.154471409566495E-001
 0.107808014650454E-001
 0.113284586641434E-001
 0.140062825739355E-001
 0.119414812404685E-001
 0.107763883067575E-001
 0.944291062143159E-002
 0.699108844253888E-002
 0.900295292347916E-002
 0.840218666575525E+000
 0.966582535949825E+000
 0.127165352563802E+001
 0.104876652739913E+001
 0.102248573387184E+000
 0.123630587111835E+000
 0.124983057554366E+000
 0.123630745647784E+000
 0.403001301024430E-002
 0.436315446184560E-002
 0.687070201635200E-002
 0.486170606154215E-002
 0.177361844052094E-002
 0.166267760184068E-002
 0.205021982578947E-002
 0.184672610348429E-002
 0.142166821608513E+000
 0.137135778623666E+000
 0.103966589531638E+000
 0.115090325043873E+000
 0.125218067294381E-001
 0.685928990729646E-002
 0.185479651573951E-001
 0.109674275456948E-001
 0.463149355958728E-002
 0.181169548991941E-001
 0.493856151719595E-002
 0.917477691480862E-002
 0.231663208094894E-001
 0.985597832200295E-002
 0.314354014606255E-001
 0.189126072985544E-001
 0.118007250169652E+000
 0.104183121270160E+000
 0.129889957221174E+000
 0.116089548588036E+000
 0.566946333133783E-001
 0.580111444532227E-001
 0.657830079119270E-001
 0.599710126135262E-001
 0.235144219831742E-002
 0.299627496780915E-002
 0.233530711121973E-002
 0.254141744569387E-002
 0.317044445229955E-002
 0.233129564525561E-002
 0.321293676780381E-002
 0.286819501301647E-002
 0.130105654122073E-002
 0.175834829434092E-002
 0.190849778295452E-002
 0.161036809184475E-002
 0.124363704111031E-002
 0.114763599399275E-002
 0.169810655966050E-002
 0.139355329709753E-002
 0.293712292618391E-003
 0.471514190146409E-003
 0.372339058989835E-003
 0.388381409008111E-003
 0.985286313003443E-003
 0.697400212019105E-003
 0.788140029861742E-003
 0.834659504412279E-003
 0.507211847052489E-003
 0.596983429046020E-003
 0.799937398445530E-003
 0.613225781413260E-003
 0.302819010819857E-003
 0.862518044772811E-004
 0.215696976172477E-003
 0.180350156853906E-003
 0.283580053417965E-003
 0.203052838496091E-003
 0.796040227847774E-004
 0.161148094088415E-003
 0.545267350339419E-002
 0.414472123690845E-002
 0.520638830770368E-002
 0.488561997635441E-002
 0.213039523094055E-002
 0.289898334187450E-002
 0.230281390848017E-002
 0.244226031712507E-002
 0.843435295487284E-001
 0.678051952697572E-001
 0.611331675431697E-001
 0.706499284327065E-001
 0.577123738781804E-001
 0.766028272942810E-001
 0.654829593312679E-001
 0.613192847539511E-001
 0.473869364719499E-001
 0.615560788208098E-001
 0.535463619562035E-001
 0.536826811548063E-001
 0.647371860337974E-002
 0.641736284537857E-002
 0.521593675333467E-002
 0.594717949204220E-002
 0.297014997661677E-001
 0.204262538854400E-001
 0.260046697340766E-001
 0.252554032021983E-001
 0.802352184936434E-002
 0.900351563906318E-002
 0.761458819815236E-002
 0.815805540278871E-002
 0.178287638305373E-003
 0.260987565295441E-003
 0.691910765837080E-004
 0.170939414599512E-003
 0.304085490092763E-003
 0.535010415812171E-003
 0.383052585293855E-003
 0.375808706970018E-003
 0.176653565650275E-001
 0.118877853216140E-001
 0.142267673065807E-001
 0.141470440878134E-001
 0.715664479209286E-002
 0.921968536209757E-002
 0.956247515757283E-002
 0.860977712279143E-002
 0.968215787728555E-003
 0.638081396046878E-003
 0.975212910655497E-003
 0.852923627127063E-003
 0.438773552660796E-002
 0.312836116926182E-002
 0.314976303024313E-002
 0.352551920425470E-002
 0.194421371367267E-002
 0.226529249232569E-002
 0.231817647495148E-002
 0.212730554167951E-002
 0.240317803909551E-002
 0.213832870896329E-002
 0.259512559222900E-002
 0.237395940762420E-002
 0.832437146878063E-002
 0.642379062582708E-002
 0.621594747648091E-002
 0.689756072025540E-002
 0.789024235695675E-002
 0.694635699412530E-002
 0.920862548116796E-002
 0.793571857383957E-002
 0.142024320346604E-001
 0.114748412241055E-001
 0.146861653129430E-001
 0.133681232320340E-001
 0.620078440906203E-002
 0.484637324722281E-002
 0.522898776341259E-002
 0.543430374596547E-002
 0.607349116454177E-002
 0.696383100601984E-002
 0.554585939095247E-002
 0.616736265627503E-002
 0.407464189029981E-002
 0.529010285069547E-002
 0.491086989051203E-002
 0.464285315002499E-002
 0.322157692854392E-002
 0.324102608196830E-002
 0.256138340539294E-002
 0.298405027994592E-002
 0.224062953579507E-002
 0.155972832385368E-002
 0.203487030401738E-002
 0.192161977671753E-002
 0.151974403724363E-002
 0.198674938502783E-002
 0.200889681126192E-002
 0.170365357190109E-002
 0.265847343544971E-001
 0.415454111580561E-001
 0.291905929398324E-001
 0.308230883560864E-001
 0.795186953107726E-001
 0.874703894604402E-001
 0.634559351925431E-001
 0.764939467199018E-001
 0.841268360479841E-001
 0.878287791905957E-001
 0.933721457212329E-001
 0.919278697732840E-001
 0.220279214487939E+000
 0.181598035720642E+000
 0.167258993240607E+000
 0.178935477002459E+000
 0.589771989144464E-001
 0.464521128831729E-001
 0.409107039277682E-001
 0.491315467143027E-001
 0.117012464650749E+000
 0.901837466257371E-001
 0.819026581487459E-001
 0.105746645322385E+000
 0.610069539565390E-001
 0.695880652889661E-001
 0.900166282281882E-001
 0.688269961135563E-001
 0.507769573336176E-001
 0.375673472257369E-001
 0.329566079018390E-001
 0.389992827735538E-001
 0.973235887740458E-002
 0.104255381944562E-001
 0.945454816936795E-002
 0.978192706946424E-002
 0.180617321115127E-002
 0.183255725871193E-002
 0.231136682887911E-002
 0.198308853895440E-002
 0.335076240329544E-001
 0.367288226878134E-001
 0.442454288652433E-001
 0.370807337285825E-001
 0.685043364032517E-002
 0.577822700810222E-002
 0.711694030174921E-002
 0.656028956110926E-002
 0.139374672257141E-002
 0.116988810157165E-002
 0.118931910629916E-002
 0.121863825151947E-002
 0.216770675681899E-002
 0.170465544389959E-002
 0.193584320053746E-002
 0.190671012713732E-002
 0.114835192102651E-003
 0.305371528950163E-003
 0.333709391939064E-003
 0.226353099355016E-003
 0.729354656370275E-003
 0.456459722418023E-003
 0.445262724564380E-003
 0.559436761152859E-003
 0.340279185100175E-002
 0.482649414847442E-002
 0.402226629750294E-002
 0.404719692280351E-002
 0.186842641546326E-002
 0.242260280103061E-002
 0.199570704555978E-002
 0.210009209796550E-002
 0.168914443830722E-002
 0.149664904551719E-002
 0.130690497674321E-002
 0.150887952166496E-002
 0.440393703382027E-001
 0.741663881681758E-001
 0.681392731056219E-001
 0.518003086251769E-001
 0.108783500182561E-002
 0.143608493128618E-002
 0.116432754990479E-002
 0.124124192162373E-002
 0.134133420750034E-002
 0.162229286253318E-002
 0.175093374130463E-002
 0.154066431771261E-002
 0.431610429812904E-002
 0.382817085982726E-002
 0.461059205965468E-002
 0.426942089984353E-002
 0.976397500399038E-003
 0.614570502544689E-003
 0.884854414562587E-003
 0.775719584448669E-003
 0.242909710715322E-002
 0.307319292786559E-002
 0.261713510226896E-002
 0.268243522479367E-002
 0.204005766061761E+000
 0.216762891511276E+000
 0.429801554458161E+000
 0.222711077987130E+000
 0.696037218686230E-001
 0.772426690481941E-001
 0.541179181006110E-001
 0.691906818572849E-001
 0.258662773499096E+000
 0.230706119308063E+000
 0.328921355204736E+000
 0.263574451745827E+000
 0.122200519595763E+000
 0.103140232711586E+000
 0.102338499504981E+000
 0.100892033953876E+000
 0.765347815212110E-001
 0.840292548964032E-001
 0.803619317822436E-001
 0.807318249723148E-001
 0.194457517705537E+000
 0.151506196073666E+000
 0.164141838163562E+000
 0.174243873571909E+000
 0.293959656423575E+000
 0.243723516912170E+000
 0.255514665498976E+000
 0.271932792927893E+000
 0.543259062492461E-003
 0.444843388008919E-003
 0.739145133016215E-003
 0.549839950095065E-003
 0.949570850952443E-001
 0.695132443936386E-001
 0.823175002692670E-001
 0.897105003079183E-001
 0.834664381658882E-001
 0.733231120532682E-001
 0.102155889867042E+000
 0.791360726731937E-001
 0.211997098874042E-001
 0.264533354896122E-001
 0.238257373586003E-001
 0.237270333196610E-001
 0.275615732462535E-001
 0.219577015459340E-001
 0.182086385390862E-001
 0.223718120564699E-001
 0.187568275252337E-001
 0.196830955317350E-001
 0.217860633230425E-001
 0.199225682470651E-001
 0.822549695035439E-002
 0.773329815365058E-002
 0.900373475740100E-002
 0.824483504005676E-002
 0.375736220487772E-001
 0.370784472514012E-001
 0.280333059408333E-001
 0.349832048948501E-001
 0.867246591957400E-003
 0.806308136944232E-003
 0.534573260883314E-003
 0.716012980080903E-003
 0.627679604056663E-003
 0.759371695923985E-003
 0.479746727682565E-003
 0.634472671690493E-003
 0.238805854667888E-003
 0.168662262684546E-003
 0.569323761685489E-004
 0.114795531120664E-003
 0.331873200097938E-003
 0.510714377642987E-003
 0.563312935060724E-003
 0.456363799222679E-003
 0.105469138975135E-002
 0.147446663383547E-002
 0.106640007891575E-002
 0.117511763571760E-002
 0.136026685135989E-002
 0.149076005460550E-002
 0.108429263653192E-002
 0.135150473250780E-002
 0.307633249316386E-001
 0.537173860820992E-001
 0.347462764777238E-001
 0.438490216907114E-001
 0.590960222353918E-001
 0.145143031383946E-001
 0.339058305469549E-001
 0.296990863284649E-001
 0.103600620650861E-001
 0.294956321501753E-001
 0.337192099857769E-001
 0.214005786368057E-001
 0.222358066573262E-001
 0.263186103971560E-001
 0.895022390324507E-002
 0.165295423509053E-001
 0.400424387489313E-002
 0.399007884723778E-002
 0.141060818227932E-001
 0.731416471902854E-002
 0.177683920546900E-001
 0.413691604547439E-002
 0.389774993446124E-002
 0.947231899758024E-002
 0.147152545437611E+000
 0.186638453387201E+000
 0.182333936421569E+000
 0.165191319609900E+000
 0.141260303111155E+000
 0.103926221275789E+000
 0.139382112873415E+000
 0.107540196521301E+000
 0.971911398513997E-002
 0.448811086953508E-001
 0.195426598111720E-001
 0.379378026177834E-001
 0.901671721798875E-001
 0.102481097622672E+000
 0.126093275517880E+000
 0.112771770996315E+000
 0.227976782544267E+000
 0.182915235403942E+000
 0.224031966528825E+000
 0.201488542660851E+000
 0.396678811852593E+000
 0.482454189345101E+000
 0.461317151589868E+000
 0.425789759914110E+000
 0.144004558423184E+000
 0.119828211794673E+000
 0.140024156043638E+000
 0.131637154628617E+000
 0.237731536844922E+000
 0.243325322442086E+000
 0.183625934103358E+000
 0.195194945514504E+000
 0.443172548182694E-001
 0.154458294662432E-001
 0.457909217228417E-001
 0.265810634962426E-001
 0.310707860481454E+000
 0.324878169707148E+000
 0.319506473679732E+000
 0.318728872486421E+000
 0.817783410184781E-001
 0.112008121161086E+000
 0.760672756215974E-001
 0.100497007310135E+000
 0.190826567743524E+000
 0.146450694107852E+000
 0.151419325437198E+000
 0.184796050821391E+000
 0.935529702207630E-001
 0.136541591783181E+000
 0.101258271951849E+000
 0.100064485066170E+000
 0.145646705642397E+000
 0.143384819466274E+000
 0.194215242524141E+000
 0.192806938062926E+000
 0.218348977706103E+000
 0.161337073207778E+000
 0.158401613224986E+000
 0.164687582716842E+000
 0.103796127308582E+000
 0.141622035595800E+000
 0.131014749684808E+000
 0.129036255231785E+000
 0.131351032628565E+000
 0.119658045072342E+000
 0.105055616101633E+000
 0.110582853520344E+000
 0.130144218323022E+000
 0.910529008640249E-001
 0.111144287731738E+000
 0.119044094371881E+000
 0.287763144984388E+000
 0.258509828378718E+000
 0.255649254665780E+000
 0.267902992416678E+000
 0.271863709444124E+000
 0.314526834182042E+000
 0.321713857950026E+000
 0.299552881495143E+000
 0.274024841610027E+000
 0.328560647776440E+000
 0.320654233994253E+000
 0.291742918747783E+000
 0.519331696083463E+000
 0.580595888413032E+000
 0.493856108258498E+000
 0.542362534021922E+000
 0.303991007475799E+000
 0.251072858983184E+000
 0.246424331425731E+000
 0.272329883236310E+000
 0.413190386213577E+000
 0.350590798151087E+000
 0.350381796598463E+000
 0.374895360256625E+000
 0.277867179235422E+000
 0.222577746384941E+000