# vtk DataFile Version 3.0
Unstructured Grid
ASCII
DATASET UNSTRUCTURED_GRID
FIELD FieldData 1
TIME 1 1 float
  0.167085E+02
POINTS         2102 double
 0.000000000000000E+000 0.000000000000000E+000 0.000000000000000E+000
 0.100000000000000E+001 0.000000000000000E+000 0.000000000000000E+000
 0.100000000000000E+001 0.100000000000000E+001 0.000000000000000E+000
 0.000000000000000E+000 0.100000000000000E+001 0.000000000000000E+000
 0.125000000000000E+000 0.250000000000000E+000 0.000000000000000E+000
 0.375000000000000E+000 0.250000000000000E+000 0.000000000000000E+000
 0.375000000000000E+000 0.750000000000000E+000 0.000000000000000E+000
 0.125000000000000E+000 0.750000000000000E+000 0.000000000000000E+000
 0.625000000000000E+000 0.250000000000000E+000 0.000000000000000E+000
 0.875000000000000E+000 0.250000000000000E+000 0.000000000000000E+000
 0.875000000000000E+000 0.750000000000000E+000 0.000000000000000E+000
 0.625000000000000E+000 0.750000000000000E+000 0.000000000000000E+000
 0.100000000000000E+001 0.500000000000000E+000 0.000000000000000E+000
 0.000000000000000E+000 0.500000000000000E+000 0.000000000000000E+000
 0.500000000000000E+000 0.000000000000000E+000 0.000000000000000E+000
 0.125000000000000E+000 0.500000000000000E+000 0.000000000000000E+000
 0.000000000000000E+000 0.750000000000000E+000 0.000000000000000E+000
 0.000000000000000E+000 0.250000000000000E+000 0.000000000000000E+000
 0.000000000000000E+000 0.875000000000000E+000 0.000000000000000E+000
 0.000000000000000E+000 0.125000000000000E+000 0.000000000000000E+000
 0.000000000000000E+000 0.812500000000000E+000 0.000000000000000E+000
 0.625000000000000E-001 0.812500000000000E+000 0.000000000000000E+000
 0.125000000000000E+000 0.375000000000000E+000 0.000000000000000E+000
 0.000000000000000E+000 0.375000000000000E+000 0.000000000000000E+000
 0.125000000000000E+000 0.625000000000000E+000 0.000000000000000E+000
 0.312500000000000E-001 0.781250000000000E+000 0.000000000000000E+000
 0.000000000000000E+000 0.625000000000000E+000 0.000000000000000E+000
 0.781250000000000E-001 0.765625000000000E+000 0.000000000000000E+000
 0.312500000000000E-001 0.843750000000000E+000 0.000000000000000E+000
 0.500000000000000E+000 0.100000000000000E+001 0.000000000000000E+000
 0.852352799227800E-001 0.850726351351351E+000 0.000000000000000E+000
 0.531250000000000E-001 0.896875000000000E+000 0.000000000000000E+000
 0.128125000000000E+000 0.862500000000000E+000 0.000000000000000E+000
 0.125000000000000E+000 0.100000000000000E+001 0.000000000000000E+000
 0.250000000000000E+000 0.750000000000000E+000 0.000000000000000E+000
 0.000000000000000E+000 0.937500000000000E+000 0.000000000000000E+000
 0.250000000000000E+000 0.100000000000000E+001 0.000000000000000E+000
 0.117915518486872E+000 0.805415518486872E+000 0.000000000000000E+000
 0.201656717908302E+000 0.819893736067327E+000 0.000000000000000E+000
 0.181985294117647E-001 0.906250000000000E+000 0.000000000000000E+000
 0.157158578892515E+000 0.827852167423944E+000 0.000000000000000E+000
 0.187500000000000E+000 0.750000000000000E+000 0.000000000000000E+000
 0.190370748034901E+000 0.885171153579592E+000 0.000000000000000E+000
 0.173219498992632E+000 0.789273026175030E+000 0.000000000000000E+000
 0.125000000000000E+000 0.687500000000000E+000 0.000000000000000E+000
 0.000000000000000E+000 0.687500000000000E+000 0.000000000000000E+000
 0.441080729166667E-001 0.732584635416667E+000 0.000000000000000E+000
 0.625000000000000E-001 0.100000000000000E+001 0.000000000000000E+000
 0.324539302647226E+000 0.874753539998500E+000 0.000000000000000E+000
 0.138239725210285E+000 0.931515391482052E+000 0.000000000000000E+000
 0.218750000000000E+000 0.780050991479902E+000 0.000000000000000E+000
 0.282595248614805E+000 0.815169690490412E+000 0.000000000000000E+000
 0.241894668607517E+000 0.813568527927710E+000 0.000000000000000E+000
 0.259830219207979E+000 0.875750318441249E+000 0.000000000000000E+000
 0.375000000000000E+000 0.687500000000000E+000 0.000000000000000E+000
 0.894072114981556E-001 0.718750000000000E+000 0.000000000000000E+000
 0.156250000000000E+000 0.718750000000000E+000 0.000000000000000E+000
 0.171875000000000E+000 0.671875000000000E+000 0.000000000000000E+000
 0.208984375000000E+000 0.705078125000000E+000 0.000000000000000E+000
 0.187500000000000E+000 0.100000000000000E+001 0.000000000000000E+000
 0.100742481264918E+000 0.901762004578004E+000 0.000000000000000E+000
 0.897955050140944E-001 0.954063112745616E+000 0.000000000000000E+000
 0.454072994832874E-001 0.943019090840959E+000 0.000000000000000E+000
 0.312500000000000E-001 0.978320013898389E+000 0.000000000000000E+000
 0.151802024837252E+000 0.894278844061106E+000 0.000000000000000E+000
 0.312500000000000E+000 0.750000000000000E+000 0.000000000000000E+000
 0.349824395642442E+000 0.812398913150492E+000 0.000000000000000E+000
 0.291845278223558E+000 0.853213315943310E+000 0.000000000000000E+000
 0.312500000000000E+000 0.100000000000000E+001 0.000000000000000E+000
 0.221920040905101E+000 0.857011448773234E+000 0.000000000000000E+000
 0.610875609743251E-001 0.656250000000000E+000 0.000000000000000E+000
 0.575501251937821E-001 0.695518883967223E+000 0.000000000000000E+000
 0.229414059980049E+000 0.912264575939035E+000 0.000000000000000E+000
 0.267409472953924E+000 0.912989160289387E+000 0.000000000000000E+000
 0.247617500704634E+000 0.954276202159214E+000 0.000000000000000E+000
 0.186156415773925E+000 0.932922904662876E+000 0.000000000000000E+000
 0.161177138586098E+000 0.966975254724362E+000 0.000000000000000E+000
 0.281250000000000E+000 0.775106270475024E+000 0.000000000000000E+000
 0.232477697233870E+000 0.641481728091557E+000 0.000000000000000E+000
 0.375000000000000E+000 0.500000000000000E+000 0.000000000000000E+000
 0.343750000000000E+000 0.773669964712841E+000 0.000000000000000E+000
 0.500000000000000E+000 0.836710937419870E+000 0.000000000000000E+000
 0.625000000000000E-001 0.460493798860530E+000 0.000000000000000E+000
 0.225506433867106E-001 0.656250000000000E+000 0.000000000000000E+000
 0.625000000000000E-001 0.578156919744020E+000 0.000000000000000E+000
 0.100683627400278E+000 0.656250000000000E+000 0.000000000000000E+000
 0.808855941873017E-001 0.617548766045778E+000 0.000000000000000E+000
 0.396623706279028E-001 0.612802597169787E+000 0.000000000000000E+000
 0.000000000000000E+000 0.562500000000000E+000 0.000000000000000E+000
 0.209099082089092E+000 0.966015356758449E+000 0.000000000000000E+000
 0.208176344887401E+000 0.668642063067022E+000 0.000000000000000E+000
 0.375000000000000E+000 0.625000000000000E+000 0.000000000000000E+000
 0.281250000000000E+000 0.727693574222975E+000 0.000000000000000E+000
 0.410395729589754E-001 0.531250000000000E+000 0.000000000000000E+000
 0.243044505147503E+000 0.715165207256627E+000 0.000000000000000E+000
 0.427668699245901E+000 0.807527989856971E+000 0.000000000000000E+000
 0.375000000000000E+000 0.100000000000000E+001 0.000000000000000E+000
 0.396556497766215E+000 0.872516538744482E+000 0.000000000000000E+000
 0.125000000000000E+000 0.562500000000000E+000 0.000000000000000E+000
 0.386020873411304E-001 0.491878123024719E+000 0.000000000000000E+000
 0.837862679783012E-001 0.496009823563561E+000 0.000000000000000E+000
 0.181474703505393E+000 0.615400296494607E+000 0.000000000000000E+000
 0.156642498481761E+000 0.640232501518239E+000 0.000000000000000E+000
 0.148741293073547E+000 0.593750000000000E+000 0.000000000000000E+000
 0.198570897886273E+000 0.531250000000000E+000 0.000000000000000E+000
 0.186280074550956E+000 0.572564766212389E+000 0.000000000000000E+000
 0.261115628859886E+000 0.572342169151976E+000 0.000000000000000E+000
 0.223664380580028E+000 0.561200712513239E+000 0.000000000000000E+000
 0.260913847788851E+000 0.504504802962447E+000 0.000000000000000E+000
 0.220403809070327E+000 0.602182935170118E+000 0.000000000000000E+000
 0.280942357260745E+000 0.670965807217831E+000 0.000000000000000E+000
 0.303530083216233E+000 0.699208028468857E+000 0.000000000000000E+000
 0.244300952472090E+000 0.677895460994186E+000 0.000000000000000E+000
 0.278676255979588E+000 0.620116626474426E+000 0.000000000000000E+000
 0.375000000000000E+000 0.562500000000000E+000 0.000000000000000E+000
 0.294783395930685E+000 0.587081428049465E+000 0.000000000000000E+000
 0.296390010773290E+000 0.538188197482711E+000 0.000000000000000E+000
 0.326808615275446E+000 0.623140446700340E+000 0.000000000000000E+000
 0.375000000000000E+000 0.375000000000000E+000 0.000000000000000E+000
 0.341600259444201E+000 0.531250000000000E+000 0.000000000000000E+000
 0.337040360926244E+000 0.581802448479955E+000 0.000000000000000E+000
 0.313454820588085E+000 0.656240056545723E+000 0.000000000000000E+000
 0.244117968371280E+000 0.386059455330322E+000 0.000000000000000E+000
 0.316730626055850E+000 0.471195859600445E+000 0.000000000000000E+000
 0.343361747898823E+000 0.718361747898823E+000 0.000000000000000E+000
 0.387582141166944E+000 0.791354577928815E+000 0.000000000000000E+000
 0.394629419637968E+000 0.831652479273046E+000 0.000000000000000E+000
 0.359139968398398E+000 0.852480346691833E+000 0.000000000000000E+000
 0.449407668689709E+000 0.857876667231944E+000 0.000000000000000E+000
 0.504433083654504E+000 0.918355468709935E+000 0.000000000000000E+000
 0.438910290808154E+000 0.922698775777408E+000 0.000000000000000E+000
 0.487684842153978E+000 0.878322236197629E+000 0.000000000000000E+000
 0.750000000000000E+000 0.100000000000000E+001 0.000000000000000E+000
 0.429264219376497E+000 0.887875644335434E+000 0.000000000000000E+000
 0.297282757956014E+000 0.952697072250340E+000 0.000000000000000E+000
 0.308758340495749E+000 0.912972519020668E+000 0.000000000000000E+000
 0.353713070703707E+000 0.947478792032462E+000 0.000000000000000E+000
 0.343750000000000E+000 0.982091257636542E+000 0.000000000000000E+000
 0.437500000000000E+000 0.100000000000000E+001 0.000000000000000E+000
 0.386196294810884E+000 0.916319687483247E+000 0.000000000000000E+000
[...]
CELL_DATA         4076
SCALARS tdens double 1
LOOKUP_TABLE default
 0.688424214373177E-006
 0.816895686574404E-006
 0.101744923582851E-005
 0.836437844419221E-006
 0.271285320049406E-003
 0.152054457038336E-003
 0.156468345309560E-003
 0.165220338902497E-003
 0.315284186579785E+000
 0.484646310267658E+000
 0.309522434294296E+000
 0.344484263010268E+000
 0.744575696632057E-006
 0.108247706019330E-005
 0.993333937318366E-006
 0.886741197192859E-006
 0.132883562966484E-005
 0.214237122628396E-005
 0.186288276528624E-005
 0.164828137727591E-005
 0.243657379347722E-005
 0.367802099743769E-005
 0.301198413115519E-005
 0.296822935683642E-005
 0.490207461568400E-002
 0.432290758292157E-002
 0.249639774058627E-001
 0.138933657244642E-001
 0.351418830533509E-003
 0.783250635137097E-003
 0.587043260834865E-003
 0.610524715887398E-003
 0.239524825311475E-002
 0.104109214925015E-002
 0.172578285868583E-002
 0.179162038363750E-002
 0.149775150516876E-005
 0.154332736332042E-005
 0.160343770299163E-005
 0.155872209515008E-005
 0.243502177004505E-004
 0.186429748315187E-004
 0.175605694865099E-004
 0.195659575288381E-004
 0.181318655793230E+000
 0.702455217862549E-001
 0.431056991175244E-001
 0.656767978839272E-001
 0.946867597941382E-006
 0.101117320688602E-005
 0.138738671836225E-005
 0.104943086607685E-005
 0.369761857213505E-001
 0.506094857503045E-001
 0.969259108653685E-001
 0.387571752736706E-001
 0.501136730157898E-004
 0.364945696909898E-004
 0.368657291173852E-004
 0.395051286233574E-004
 0.120007270319231E-003
 0.883991005761045E-004
 0.601829934371900E-004
 0.858331221450239E-004
 0.153985865321721E-005
 0.188149452777471E-005
 0.277126461986818E-005
 0.199764780681232E-005
 0.104527133933737E-004
 0.840788899898475E-005
 0.584267198733567E-005
 0.818232713748162E-005
 0.479331577443952E-006
 0.461159017849399E-006
 0.882881900881451E-006
 0.606570741517818E-006
 0.324782142354636E-001
 0.967590035184940E-001
 0.148705959853811E-001
 0.243328733702416E-001
 0.513028345744455E-001
 0.555524907137922E-001
 0.192678292722174E-001
 0.446076625945744E-001
 0.145412269337984E-005
 0.149542569786772E-005
 0.157218755308391E-005
 0.151569113928962E-005
 0.134901310830271E-001
 0.457533781752225E-001
 0.601338173210349E-001
 0.514360427668824E-001
 0.185824100359629E-005
 0.147077071260439E-005
 0.167042650888984E-005
 0.160968504342765E-005
 0.111048337877149E-001
 0.141540156088552E-001
 0.473840786787486E-001
 0.163446269735326E-001
 0.614055106499741E-004
 0.310319258457734E-004
 0.302524148091947E-004
 0.343909762481781E-004
 0.267053520476609E-005
 0.496019632284293E-005
 0.285818699782699E-005
 0.325808946053909E-005
 0.479306585388869E+000
 0.370061041076259E+000
 0.406483955657248E+000
 0.437216611317941E+000
 0.216954169579059E-005
 0.266711412355793E-005
 0.183953759439633E-005
 0.218024146926973E-005
 0.239799020272890E-004
 0.688557280057989E-005
 0.105806103748663E-004
 0.109299482169253E-004
 0.340338611489245E-005
 0.653825649243636E-005
 0.479873764408633E-005
 0.465562612416289E-005
 0.700992711035419E-005
 0.477051097518653E-005
 0.491956597693749E-005
 0.538610081799028E-005
 0.919258553160514E-005
 0.208286487796362E-004
 0.468692665650905E-005
 0.813968956472604E-005
 0.593848279159101E-005
 0.856333873724401E-005
 0.111408661287906E-004
 0.821238551640232E-005
 0.151218853337055E-005
 0.131862883250749E-005
 0.570491468650193E-006
 0.823724924947728E-006
 0.109105305339535E+000
 0.139111606600813E+000
 0.143537081348250E+000
 0.147065604261861E+000
 0.849364301581315E-005
 0.418882882040471E-005
 0.184411187923209E-004
 0.668148960684583E-005
 0.120355074433263E-005
 0.983922065357592E-006
 0.127697118401993E-005
 0.115251137254136E-005
 0.294378027235340E-005
 0.203752224481247E-005
 0.289954956207539E-005
 0.255206133529784E-005
 0.164176942290195E-005
 0.165409452138341E-005
 0.148975164233904E-005
 0.157358021688539E-005
 0.224080620032950E-005
 0.189626911827639E-005
 0.267600180124469E-005
 0.221722747278775E-005
 0.876285365577504E-005
 0.497721140609294E-005
 0.176319591995591E-004
 0.846066723093567E-005
 0.137918899255526E-005
 0.174686884752544E-005
 0.138099042433178E-005
 0.150578293826419E-005
 0.339821355675753E-006
 0.195116758732062E-006
 0.249430399001318E-006
 0.267412003094513E-006
 0.392212566153724E-004
 0.540504439015850E-004
 0.549664425223617E-004
 0.504839062207401E-004
 0.438824570916605E-006
 0.705387291830619E-006
 0.799897215588515E-006
 0.618823852831170E-006
 0.607043178718379E-003
 0.751141142813925E-003
 0.249011788364498E-003
 0.601240162170822E-003
 0.538280584305198E-004
 0.156306419006932E-004
 0.621985598267476E-004
 0.387486962096379E-004
 0.281511990314634E-005
 0.363020127100575E-005
 0.548015880182888E-005
 0.376308820712483E-005
 0.200776338083435E-005
 0.174226850961897E-005
 0.126934222123848E-005
 0.164370900563230E-005
 0.224495066861887E-005
 0.259509827599842E-005
 0.353596555392835E-005
 0.273276040899920E-005
 0.115041857783264E-005
 0.976884477373788E-006
 0.890669715476367E-006
 0.963091682164516E-006
 0.115024239234065E+000
 0.102900000307849E+000
 0.174940677447847E+000
 0.123432777269807E+000
 0.118927947709995E-005
 0.133398519429844E-005
 0.184013752447227E-005
 0.143937254980482E-005
 0.813479878485467E-006
 0.639748162984587E-006
 0.747927825338612E-006
 0.756134614505467E-006
 0.484682913083100E-003
 0.823635645787746E-003
 0.151645811997005E-003
 0.287392131912894E-003
 0.361613414530977E-005
 0.428480826548466E-005
 0.295951496874362E-005
 0.361292137331241E-005
 0.153442131561571E-005
 0.205155267794466E-005
 0.212339333490997E-005
 0.184824595573111E-005
 0.447990053265745E-005
 0.319741598646862E-005
 0.572530417899703E-005
 0.435779176593163E-005
 0.144418360347442E-005
 0.964140120231427E-006
 0.104403892851945E-005
 0.114861020104163E-005
 0.407856793978960E-006
 0.682984810037003E-006
 0.558701854355110E-006
 0.540741785172071E-006
 0.210757845537426E-004
 0.455068579329951E-004
 0.374582404146812E-004
 0.373313064374960E-004
 0.123645297878318E-004
 0.168793302940292E-004
 0.281986535197146E-004
 0.166473000424490E-004
 0.111144497437367E-002
 0.166267158069054E-002
 0.488304330390956E-003
 0.101036891931374E-002
 0.978001801219271E-002
 0.402634485307443E-001
 0.465620768618324E-002
 0.160427299687616E-001
 0.993078111555799E-004
 0.647501487872413E-004
 0.164498729465887E-003
 0.107610624182257E-003
 0.276033103412149E-005
 0.383577617098197E-005
 0.379131691748901E-005
 0.347638783697174E-005
 0.135542709443976E-004
 0.409371920528414E-004
 0.178453426420618E-004
 0.203194005868765E-004
 0.266152180372921E-003
 0.130017395914974E-003
 0.547389655679208E-003
 0.312219475842856E-003
 0.765609286815917E-006
 0.891022577681434E-006
 0.973466628175106E-006
 0.873036170557211E-006
 0.249239528729457E-005
 0.183276912408572E-005
 0.187083236113834E-005
 0.204243528390637E-005
 0.147444365071120E-005
 0.139185541557090E-005
 0.119460685955133E-005
 0.134104481177653E-005
 0.246252543048806E-005
 0.181807216987798E-005
 0.175706607163196E-005
 0.197928919659396E-005
 0.583339255892159E-006
 0.854788119979264E-006
 0.770494511037722E-006
 0.713232854062528E-006
 0.345208822762358E-006
 0.499293231150008E-006
 0.428252760375241E-006
 0.394591034527789E-006
 0.610654731330720E-004
 0.711661498432841E-004
 0.148844959831856E-003
 0.729603816329078E-004
 0.156399197824377E-004
 0.124863685075684E-004
 0.166908355727309E-004
 0.150933307743595E-004
 0.473180991933595E-005
 0.706039394122954E-005
 0.443409341494470E-005
 0.521487998225275E-005
 0.974736870951266E-005
 0.536555613514941E-005
 0.544276526906862E-005
 0.621756554382243E-005
 0.485493546747415E-003
 0.169751700547024E-003
 0.284859598244819E-003
 0.281955259028149E-003
 0.951353183260969E-004
 0.179319862528620E-003
 0.680573139024972E-004
 0.885948107919903E-004
 0.236323197492138E-002
 0.775806021777321E-002
 0.606336237878135E-002
 0.653527679141297E-002
 0.997774639960026E-004
 0.120989963353641E-003
 0.702363864511628E-004
 0.917033388303243E-004
 0.912175361624515E-003
 0.472594289580848E-003
 0.179428269918338E-002
 0.913831444704760E-003
 0.498968969486277E-004
 0.327862787932062E-004
 0.637901323945237E-004
 0.512658695884667E-004
 0.238061127198284E-004
 0.275764319302932E-004
 0.399774340295664E-004
 0.281707889553397E-004
 0.268532426741080E-004
 0.210182661437232E-004
 0.125580561179613E-004
 0.210071686054666E-004
 0.819951796441804E-001
 0.982550036023698E+000
 0.425374635801014E+001
 0.100884452052528E+001
 0.303143576906870E-001
 0.317743251966955E-001
 0.489809896922617E-001
 0.455842107135065E-001
 0.418897701521420E-005
 0.425936545183668E-005
 0.124411109843032E-004
 0.546900490776527E-005
 0.105934280340425E-005
 0.100025959171772E-005
 0.128774795097301E-005
 0.111845388790389E-005
 0.133973775806024E+000
 0.150220230986891E+000
 0.958643283880730E-001
 0.100017546251996E+000
 0.333070996451358E-002
 0.253388756337559E-002
 0.353844816440539E-001
 0.142741081468279E-001
 0.233160683326946E-002
 0.216286853829396E-001
 0.232748315722831E-002
 0.126951642148990E-001
 0.488542633886278E-001
 0.116506106951290E-001
 0.511584785642634E-001
 0.297254528461635E-001
 0.482891337406988E-001
 0.304886271617294E-001
 0.907324157540017E-001
 0.330978167522979E-001
 0.192966078128729E-001
 0.844296569779886E-001
 0.543924686116237E-001
 0.231640562364675E-001
 0.244999674381217E-005
 0.337156849082948E-005
 0.233053163654831E-005
 0.265295617302215E-005
 0.376396488883842E-005
 0.243240663483009E-005
 0.383555228657632E-005
 0.336084124219233E-005
 0.112792779253625E-005
 0.167162184577649E-005
 0.184456885993423E-005
 0.152610833781894E-005
 0.101632655819828E-005
 0.971829269934429E-006
 0.159928859576298E-005
 0.119381183532355E-005
 0.200307207773426E-006
 0.344498208573270E-006
 0.254418398299349E-006
 0.271698672575536E-006
 0.787913029327468E-006
 0.534188399226030E-006
 0.590354596170164E-006
 0.637987002527311E-006
 0.358947839907996E-006
 0.450489511539013E-006
 0.626734879289172E-006
 0.459831571146694E-006
 0.199777133278895E-006
 0.524683857117575E-007
 0.140745899742110E-006
 0.115509504130759E-006
 0.185140622104472E-006
 0.132908714045380E-006
 0.485193672117340E-007
 0.103743366744667E-006
 0.804995836993634E-005
 0.534070403321441E-005
 0.776921206587160E-005
 0.714801379117191E-005
 0.221194986839374E-005
 0.339861530722099E-005
 0.244908346288449E-005
 0.260625873456216E-005
 0.545400327448283E-002
 0.196965961383978E-002
 0.144957563007529E-002
 0.206384438463155E-002
 0.147161694713069E+000
 0.242773576641476E+000
 0.205805898155129E+000
 0.182905914913572E+000
 0.522970617659140E-003
 0.120017444122490E-002
 0.759657606748003E-003
 0.747656804910029E-003
 0.887109552812280E-005
 0.839354224524525E-005
 0.628679372774235E-005
 0.752647572736817E-005
 0.167481029072741E-003
 0.797144631035102E-004
 0.134444846866097E-003
 0.132835247897980E-003
 0.140094039854888E-004
 0.164157637699430E-004
 0.121399361378335E-004
 0.140032954707348E-004
 0.107701906091610E-006
 0.153620278338721E-006
 0.411467195349437E-007
 0.102344577296734E-006
 0.185668465393062E-006
 0.329467465010439E-006
 0.227952631426861E-006
 0.227536695706469E-006
 0.684690827863139E-004
 0.328142487748175E-004
 0.476204699688767E-004
 0.447743833646639E-004
 0.124592980315380E-004
 0.194508499291535E-004
 0.200733150534652E-004
 0.178536448223512E-004
 0.574166504191484E-006
 0.375340930847452E-006
 0.582599524082731E-006
 0.505354611772371E-006
 0.486233817856721E-005
 0.237134951790209E-005
 0.301240890337802E-005
 0.340991129683589E-005
 0.117860817087604E-005
 0.146007594044379E-005
 0.153079582328023E-005
 0.134631119407272E-005
 0.158373060842667E-005
 0.138127780781202E-005
 0.179242294312621E-005
 0.159344156434077E-005
 0.175754429593351E-004
 0.109942009678699E-004
 0.107899316883412E-004
 0.120825873853658E-004
 0.143559070910312E-004
 0.119404661904542E-004
 0.191211568942449E-004
 0.146112979898519E-004
 0.366714527002348E-004
 0.249290106249904E-004
 0.398900699637871E-004
 0.353479826386605E-004
 0.840814886868661E-005
 0.565914400922426E-005
 0.665649388154599E-005
 0.700097708447751E-005
 0.941420275713108E-005
 0.114329044230226E-004
 0.772213343341257E-005
 0.943410312201787E-005
 0.486003392263575E-005
 0.747797566316216E-005
 0.635844754439320E-005
 0.602660340506646E-005
 0.362882474999612E-005
 0.351260178803232E-005
 0.257524097325917E-005
 0.321123170859487E-005
 0.204614812437980E-005
 0.129790363254060E-005
 0.185555598517785E-005
 0.169169033198455E-005
 0.127903862641310E-005
 0.189318225378726E-005
 0.185754021797289E-005
 0.153997005455944E-005
 0.163628059959310E-003
 0.472908272754130E-003
 0.192831608426488E-003
 0.198940532002383E-003
 0.339541821906250E-002
 0.582152643178468E-002
 0.146044256052746E-002
 0.368933284456275E-002
 0.554213383526205E-002
 0.158649426886552E-001
 0.138682697427967E-001
 0.901732746889237E-002
 0.870569042063290E+000
 0.379800909988012E+000
 0.589768680385465E+000
 0.762612446807321E+000
 0.667431605058807E-001
 0.663582387284740E-001
 0.526478396299098E-001
 0.676067740260823E-001
 0.216367430241344E+000
 0.171926136593422E+000
 0.100083484768437E+000
 0.179610060919449E+000
 0.112222276026955E-002
 0.179892659225509E-002
 0.431734945381908E-002
 0.161173894445851E-002
 0.738300217576176E-003
 0.322250623156793E-003
 0.247799570089781E-003
 0.322639268973478E-003
 0.159199644168902E-004
 0.172537015971032E-004
 0.145461507018018E-004
 0.157846229371119E-004
 0.117895055970300E-005
 0.143814340821628E-005
 0.182689452223336E-005
 0.141431425676688E-005
 0.219785745264766E-003
 0.286339847635488E-003
 0.445672143926318E-003
 0.274823637449282E-003
 0.102185611553972E-004
 0.800553875972689E-005
 0.115129820720093E-004
 0.985212456798513E-005
 0.831237303373507E-006
 0.693629425582985E-006
 0.713694908926564E-006
 0.726894037350305E-006
 0.138208412405810E-005
 0.103500773060122E-005
 0.121648654612143E-005
 0.118868664348592E-005
 0.672015062583535E-007
 0.178805200822927E-006
 0.193553302222616E-006
 0.131087922212047E-006
 0.438177551662901E-006
 0.267310510223680E-006
 0.262660914543770E-006
 0.331060826390406E-006
 0.263976882242199E-005
 0.529799836245911E-005
 0.346590750189238E-005
 0.341630845295739E-005
 0.121748929264011E-005
 0.167230057504016E-005
 0.129257238446390E-005
 0.138730991344233E-005
 0.104754915888341E-005
 0.903379025533135E-006
 0.793267558827827E-006
 0.917569935614473E-006
 0.458830827009017E-001
 0.705385130029700E-001
 0.782376653560304E-001
 0.496891599531273E-001
 0.668675102057091E-006
 0.903118693155135E-006
 0.711431243822751E-006
 0.766454867722957E-006
 0.821731175590159E-006
 0.102767887311068E-005
 0.109951465611688E-005
 0.962374508081092E-006
 0.489325776504489E-005
 0.432031606395689E-005
 0.565460502569377E-005
 0.490215841360430E-005
 0.587079641336463E-006
 0.362098778520912E-006
 0.534463829241402E-006
 0.463831444843191E-006
 0.235947342941867E-005
 0.319463572262156E-005
 0.250869182106004E-005
 0.263184528351020E-005
 0.510482017274443E-002
 0.824181522369607E-002
 0.661319217777989E-001
 0.550140509655257E-002
 0.802158665074185E-001
 0.138474264632536E+000
 0.799400294236115E-001
 0.119190271864124E+000
 0.319515627597780E-001
 0.340244397559834E-001
 0.148014332473716E+000
 0.347222427825020E-001
 0.317178634655346E-001
 0.259861874697382E-001
 0.212140560554866E-001
 0.250441878293197E-001
 0.375076087101444E-001
 0.221695054754154E-001
 0.103814769719370E-001
 0.179050071923671E-001
 0.118357240921472E+000
 0.613817673939292E-001
 0.121145837714515E+000
 0.139004701341711E+000
 0.110350668508989E+001
 0.553728003767122E+000
 0.107265751097235E+001
 0.101749573796593E+001
 0.337906883933446E-006
 0.267554125710224E-006
 0.449873801935155E-006
 0.335505585655991E-006
 0.379673711029552E+000
 0.246508088560444E+000
 0.282024195988046E+000
 0.293230692625746E+000
 0.562282906563453E-001
 0.757647002715615E-001
 0.115165471440870E+000
 0.118390822531297E+000
 0.747484073601572E-004
 0.122499895330039E-003
 0.944738997839512E-004
 0.951591312108579E-004
 0.148384944769856E-003
 0.884638596318653E-004
 0.616169474835300E-004
 0.918872934163326E-004
 0.563410632085578E-004
 0.634733931561553E-004
 0.767906556470955E-004
 0.639309105233974E-004
 0.122740296647508E-004
 0.117305584500592E-004
 0.146185661222920E-004
 0.125320949821093E-004
 0.257768167409455E-003
 0.246358990318166E-003
 0.129075160288951E-003
 0.236468053531815E-003
 0.508644119247966E-006
 0.482260991535122E-006
 0.317724844272176E-006
 0.424090965072481E-006
 0.384346945608058E-006
 0.459511988419811E-006
 0.285814275237023E-006
 0.382715968402638E-006
 0.143064425355156E-006
 0.103448973945548E-006
 0.346090697257335E-007
 0.701476653001668E-007
 0.204994063785371E-006
 0.320940270144094E-006
 0.352154094297025E-006
 0.286244339753657E-006
 0.649140045733429E-006
 0.101594047141887E-005
 0.657258574856901E-006
 0.730087010723664E-006
 0.111922725539148E-005
 0.116367861730266E-005
 0.666751320043823E-006
 0.924713303831613E-006
 0.354178845648869E-001
 0.622776423877700E-001
 0.366875958563875E-001
 0.520714203439060E-001
 0.721117924059171E-001
 0.181141545140917E-001
 0.402275577982465E-001
 0.329090178180009E-001
 0.187367230363588E-001
 0.490535991745835E-001
 0.542145672974808E-001
 0.211177852700153E-001
 0.258186496850368E-001
 0.292622983521956E-001
 0.119862708225978E-001
 0.189420738597798E-001
 0.189397848282428E-002
 0.193759867849458E-002
 0.154089934121757E-001
 0.848280762111831E-002
 0.198536976416938E-001
 0.235014935873382E-002
 0.225728714534485E-002
 0.115729723205447E-001
 0.158823235986048E+000
 0.190554980297711E+000
 0.375396888885355E+000
 0.143585315737447E+000
 0.251214247251921E+000
 0.125437378093347E+000
 0.153626901069425E+000
 0.102858616199914E+000
 0.867164595377471E-002
 0.341872376836640E-001
 0.105276473152033E-001
 0.481710417309999E-001
 0.958905045740451E-001
 0.113361457481401E+000
 0.131142902864745E+000
 0.120917906480270E+000
 0.205667258709287E+000
 0.182034523897855E+000
 0.212619734277430E+000
 0.186893564571141E+000
 0.269606315427236E+000
 0.317442869893662E+000
 0.430054049742925E+000
 0.262523113833413E+000
 0.151952280549777E+000
 0.126932607801392E+000
 0.129112744475686E+000
 0.136205247771868E+000
 0.263581760472125E+000
 0.368355423722145E+000
 0.207451020086845E+000
 0.206722036021566E+000
 0.571545225155464E-001
 0.198102987392151E-001
 0.567005286009612E-001
 0.302205061297706E-001
 0.146752910761134E+001
 0.723785790825159E+000
 0.129254866548418E+001
 0.109817520354145E+001
 0.727045762961514E-001
 0.117452683380398E+000
 0.766429796163802E-001
 0.111515600844483E+000
 0.178181620739983E+000
 0.156607814371167E+000
 0.132371054088544E+000
 0.178845790773753E+000
 0.447055854681458E-001
 0.889378516717342E-001
 0.298059848304133E-001
 0.776422824379625E-001
 0.223435484223255E+000
 0.131309835766076E+000
 0.269489820089174E+000
 0.329132199358110E+000
 0.521084819149369E-001
 0.483897032378970E-001
 0.400974842055015E-001
 0.401375721993869E-001
 0.407898530282742E-001
 0.135195697669635E+000
 0.552546052975174E-001
 0.400205487678756E-001
 0.398903343541251E+000
 0.409927013110909E+000
 0.354470593731598E+000
 0.362060034108403E+000
 0.192339090546840E+000
 0.898731316791991E-001
 0.157638802374625E+000
 0.148600056710151E+000
 0.379645775623718E+000
 0.446569545671143E+000
 0.291056786823144E+000
 0.304686013169434E+000
 0.621644374943753E+000
 0.471371929322985E+000
 0.121537152479484E+001
 0.817482442774015E+000
 0.237575177068268E+000
 0.250934598403080E+000
 0.309300768262329E+000
 0.253995322401589E+000
 0.334013534897127E+000
 0.384974242699553E+000
 0.453034161573438E+000
 0.388340301025349E+000
 0.259380595433884E+000
 0.210919432983495E+000
 0.233816232574535E+000
 0.243531617900450E+000
 0.959511914800818E+000
 0.130319709216474E+001
 0.643102764654286E+000
 0.730363203551180E+000
 0.148739428948754E+000
 0.172180614051864E+000