# vtk DataFile Version 3.0
Unstructured Grid
ASCII
DATASET UNSTRUCTURED_GRID
FIELD FieldData 1
TIME 1 1 float
  0.324585E+02
POINTS         2102 double
 0.000000000000000E+000 0.000000000000000E+000 0.000000000000000E+000
 0.100000000000000E+001 0.000000000000000E+000 0.000000000000000E+000
 0.100000000000000E+001 0.100000000000000E+001 0.000000000000000E+000
 0.000000000000000E+000 0.100000000000000E+001 0.000000000000000E+000
 0.125000000000000E+000 0.250000000000000E+000 0.000000000000000E+000
 0.375000000000000E+000 0.250000000000000E+000 0.000000000000000E+000
 0.375000000000000E+000 0.750000000000000E+000 0.000000000000000E+000
 0.125000000000000E+000 0.750000000000000E+000 0.000000000000000E+000
 0.625000000000000E+000 0.250000000000000E+000 0.000000000000000E+000
 0.875000000000000E+000 0.250000000000000E+000 0.000000000000000E+000
 0.875000000000000E+000 0.750000000000000E+000 0.000000000000000E+000
 0.625000000000000E+000 0.750000000000000E+000 0.000000000000000E+000
 0.100000000000000E+001 0.500000000000000E+000 0.000000000000000E+000
 0.000000000000000E+000 0.500000000000000E+000 0.000000000000000E+000
 0.500000000000000E+000 0.000000000000000E+000 0.000000000000000E+000
 0.125000000000000E+000 0.500000000000000E+000 0.000000000000000E+000
 0.000000000000000E+000 0.750000000000000E+000 0.000000000000000E+000
 0.000000000000000E+000 0.250000000000000E+000 0.000000000000000E+000
 0.000000000000000E+000 0.875000000000000E+000 0.000000000000000E+000
 0.000000000000000E+000 0.125000000000000E+000 0.000000000000000E+000
 0.000000000000000E+000 0.812500000000000E+000 0.000000000000000E+000
 0.625000000000000E-001 0.812500000000000E+000 0.000000000000000E+000
 0.125000000000000E+000 0.375000000000000E+000 0.000000000000000E+000
 0.000000000000000E+000 0.375000000000000E+000 0.000000000000000E+000
 0.125000000000000E+000 0.625000000000000E+000 0.000000000000000E+000
 0.312500000000000E-001 0.781250000000000E+000 0.000000000000000E+000
 0.000000000000000E+000 0.625000000000000E+000 0.000000000000000E+000
 0.781250000000000E-001 0.765625000000000E+000 0.000000000000000E+000
 0.312500000000000E-001 0.843750000000000E+000 0.000000000000000E+000
 0.500000000000000E+000 0.100000000000000E+001 0.000000000000000E+000
 0.852352799227800E-001 0.850726351351351E+000 0.000000000000000E+000
 0.531250000000000E-001 0.896875000000000E+000 0.000000000000000E+000
 0.128125000000000E+000 0.862500000000000E+000 0.000000000000000E+000
 0.125000000000000E+000 0.100000000000000E+001 0.000000000000000E+000
 0.250000000000000E+000 0.750000000000000E+000 0.000000000000000E+000
 0.000000000000000E+000 0.937500000000000E+000 0.000000000000000E+000
 0.250000000000000E+000 0.100000000000000E+001 0.000000000000000E+000
 0.117915518486872E+000 0.805415518486872E+000 0.000000000000000E+000
 0.201656717908302E+000 0.819893736067327E+000 0.000000000000000E+000
 0.181985294117647E-001 0.906250000000000E+000 0.000000000000000E+000
 0.157158578892515E+000 0.827852167423944E+000 0.000000000000000E+000
 0.187500000000000E+000 0.750000000000000E+000 0.000000000000000E+000
 0.190370748034901E+000 0.885171153579592E+000 0.000000000000000E+000
 0.173219498992632E+000 0.789273026175030E+000 0.000000000000000E+000
 0.125000000000000E+000 0.687500000000000E+000 0.000000000000000E+000
 0.000000000000000E+000 0.687500000000000E+000 0.000000000000000E+000
 0.441080729166667E-001 0.732584635416667E+000 0.000000000000000E+000
 0.625000000000000E-001 0.100000000000000E+001 0.000000000000000E+000
 0.324539302647226E+000 0.874753539998500E+000 0.000000000000000E+000
 0.138239725210285E+000 0.931515391482052E+000 0.000000000000000E+000
 0.218750000000000E+000 0.780050991479902E+000 0.000000000000000E+000
 0.282595248614805E+000 0.815169690490412E+000 0.000000000000000E+000
 0.241894668607517E+000 0.813568527927710E+000 0.000000000000000E+000
 0.259830219207979E+000 0.875750318441249E+000 0.000000000000000E+000
 0.375000000000000E+000 0.687500000000000E+000 0.000000000000000E+000
 0.894072114981556E-001 0.718750000000000E+000 0.000000000000000E+000
 0.156250000000000E+000 0.718750000000000E+000 0.000000000000000E+000
 0.171875000000000E+000 0.671875000000000E+000 0.000000000000000E+000
 0.208984375000000E+000 0.705078125000000E+000 0.000000000000000E+000
 0.187500000000000E+000 0.100000000000000E+001 0.000000000000000E+000
 0.100742481264918E+000 0.901762004578004E+000 0.000000000000000E+000
 0.897955050140944E-001 0.954063112745616E+000 0.000000000000000E+000
 0.454072994832874E-001 0.943019090840959E+000 0.000000000000000E+000
 0.312500000000000E-001 0.978320013898389E+000 0.000000000000000E+000
 0.151802024837252E+000 0.894278844061106E+000 0.000000000000000E+000
 0.312500000000000E+000 0.750000000000000E+000 0.000000000000000E+000
 0.349824395642442E+000 0.812398913150492E+000 0.000000000000000E+000
 0.291845278223558E+000 0.853213315943310E+000 0.000000000000000E+000
 0.312500000000000E+000 0.100000000000000E+001 0.000000000000000E+000
 0.221920040905101E+000 0.857011448773234E+000 0.000000000000000E+000
 0.610875609743251E-001 0.656250000000000E+000 0.000000000000000E+000
 0.575501251937821E-001 0.695518883967223E+000 0.000000000000000E+000
 0.229414059980049E+000 0.912264575939035E+000 0.000000000000000E+000
 0.267409472953924E+000 0.912989160289387E+000 0.000000000000000E+000
 0.247617500704634E+000 0.954276202159214E+000 0.000000000000000E+000
 0.186156415773925E+000 0.932922904662876E+000 0.000000000000000E+000
 0.161177138586098E+000 0.966975254724362E+000 0.000000000000000E+000
 0.281250000000000E+000 0.775106270475024E+000 0.000000000000000E+000
 0.232477697233870E+000 0.641481728091557E+000 0.000000000000000E+000
 0.375000000000000E+000 0.500000000000000E+000 0.000000000000000E+000
 0.343750000000000E+000 0.773669964712841E+000 0.000000000000000E+000
 0.500000000000000E+000 0.836710937419870E+000 0.000000000000000E+000
 0.625000000000000E-001 0.460493798860530E+000 0.000000000000000E+000
 0.225506433867106E-001 0.656250000000000E+000 0.000000000000000E+000
 0.625000000000000E-001 0.578156919744020E+000 0.000000000000000E+000
 0.100683627400278E+000 0.656250000000000E+000 0.000000000000000E+000
 0.808855941873017E-001 0.617548766045778E+000 0.000000000000000E+000
 0.396623706279028E-001 0.612802597169787E+000 0.000000000000000E+000
 0.000000000000000E+000 0.562500000000000E+000 0.000000000000000E+000
 0.209099082089092E+000 0.966015356758449E+000 0.000000000000000E+000
 0.208176344887401E+000 0.668642063067022E+000 0.000000000000000E+000
 0.375000000000000E+000 0.625000000000000E+000 0.000000000000000E+000
 0.281250000000000E+000 0.727693574222975E+000 0.000000000000000E+000
 0.410395729589754E-001 0.531250000000000E+000 0.000000000000000E+000
 0.243044505147503E+000 0.715165207256627E+000 0.000000000000000E+000
 0.427668699245901E+000 0.807527989856971E+000 0.000000000000000E+000
 0.375000000000000E+000 0.100000000000000E+001 0.000000000000000E+000
 0.396556497766215E+000 0.872516538744482E+000 0.000000000000000E+000
 0.125000000000000E+000 0.562500000000000E+000 0.000000000000000E+000
 0.386020873411304E-001 0.491878123024719E+000 0.000000000000000E+000
 0.837862679783012E-001 0.496009823563561E+000 0.000000000000000E+000
 0.181474703505393E+000 0.615400296494607E+000 0.000000000000000E+000
 0.156642498481761E+000 0.640232501518239E+000 0.000000000000000E+000
 0.148741293073547E+000 0.593750000000000E+000 0.000000000000000E+000
 0.198570897886273E+000 0.531250000000000E+000 0.000000000000000E+000
 0.186280074550956E+000 0.572564766212389E+000 0.000000000000000E+000
 0.261115628859886E+000 0.572342169151976E+000 0.000000000000000E+000
 0.223664380580028E+000 0.561200712513239E+000 0.000000000000000E+000
 0.260913847788851E+000 0.504504802962447E+000 0.000000000000000E+000
 0.220403809070327E+000 0.602182935170118E+000 0.000000000000000E+000
 0.280942357260745E+000 0.670965807217831E+000 0.000000000000000E+000
 0.303530083216233E+000 0.699208028468857E+000 0.000000000000000E+000
 0.244300952472090E+000 0.677895460994186E+000 0.000000000000000E+000
 0.278676255979588E+000 0.620116626474426E+000 0.000000000000000E+000
 0.375000000000000E+000 0.562500000000000E+000 0.000000000000000E+000
 0.294783395930685E+000 0.587081428049465E+000 0.000000000000000E+000
 0.296390010773290E+000 0.538188197482711E+000 0.000000000000000E+000
 0.326808615275446E+000 0.623140446700340E+000 0.000000000000000E+000
 0.375000000000000E+000 0.375000000000000E+000 0.000000000000000E+000
 0.341600259444201E+000 0.531250000000000E+000 0.000000000000000E+000
 0.337040360926244E+000 0.581802448479955E+000 0.000000000000000E+000
 0.313454820588085E+000 0.656240056545723E+000 0.000000000000000E+000
 0.244117968371280E+000 0.386059455330322E+000 0.000000000000000E+000
 0.316730626055850E+000 0.471195859600445E+000 0.000000000000000E+000
 0.343361747898823E+000 0.718361747898823E+000 0.000000000000000E+000
 0.387582141166944E+000 0.791354577928815E+000 0.000000000000000E+000
 0.394629419637968E+000 0.831652479273046E+000 0.000000000000000E+000
 0.359139968398398E+000 0.852480346691833E+000 0.000000000000000E+000
 0.449407668689709E+000 0.857876667231944E+000 0.000000000000000E+000
 0.504433083654504E+000 0.918355468709935E+000 0.000000000000000E+000
 0.438910290808154E+000 0.922698775777408E+000 0.000000000000000E+000
 0.487684842153978E+000 0.878322236197629E+000 0.000000000000000E+000
 0.750000000000000E+000 0.100000000000000E+001 0.000000000000000E+000
 0.429264219376497E+000 0.887875644335434E+000 0.000000000000000E+000
 0.297282757956014E+000 0.952697072250340E+000 0.000000000000000E+000
 0.308758340495749E+000 0.912972519020668E+000 0.000000000000000E+000
 0.353713070703707E+000 0.947478792032462E+000 0.000000000000000E+000
 0.343750000000000E+000 0.982091257636542E+000 0.000000000000000E+000
 0.437500000000000E+000 0.100000000000000E+001 0.000000000000000E+000
 0.386196294810884E+000 0.916319687483247E+000 0.000000000000000E+000
[...]
CELL_DATA         4076
SCALARS tdens double 1
LOOKUP_TABLE default
 0.183851945465636E-009
 0.218340700599507E-009
 0.275045258208415E-009
 0.224389086328380E-009
 0.127302732546400E-006
 0.663555651314561E-007
 0.660979239594601E-007
 0.711434957646192E-007
 0.155277769088126E+000
 0.691257717561217E+000
 0.572927753519262E-001
 0.248326829352797E+000
 0.196391111780357E-009
 0.291685227400270E-009
 0.262354543201460E-009
 0.235209378438272E-009
 0.351813545778903E-009
 0.587454725752492E-009
 0.495525926806827E-009
 0.437841146776642E-009
 0.660515020802165E-009
 0.101804897459627E-008
 0.810430308757252E-009
 0.808770015820462E-009
 0.244158847546768E-002
 0.230276315281807E-002
 0.255638603743368E-001
 0.152087051098355E-001
 0.202811845285054E-006
 0.570409597781155E-006
 0.378101634137454E-006
 0.403949160460149E-006
 0.243276484805868E-005
 0.790073189443257E-006
 0.154585926927952E-005
 0.165079643165154E-005
 0.406869561420702E-009
 0.415610227727507E-009
 0.434782630047304E-009
 0.421944774104072E-009
 0.829721691097354E-008
 0.623243227181143E-008
 0.582012266535801E-008
 0.652434617826523E-008
 0.208112813051786E-001
 0.433322579339103E-002
 0.760786282166058E-002
 0.402093899549996E-002
 0.262380240246195E-009
 0.279277889336189E-009
 0.388666207011748E-009
 0.290898622320755E-009
 0.729557849485283E-002
 0.126040373489426E-001
 0.171701883373439E+000
 0.135913830755638E-001
 0.199823063114119E-007
 0.138158004607690E-007
 0.139455220535835E-007
 0.150556603793348E-007
 0.494003982745479E-007
 0.315060299386325E-007
 0.221197595783642E-007
 0.321193365409744E-007
 0.408452480807172E-009
 0.501950199244437E-009
 0.756138889589692E-009
 0.534908483929073E-009
 0.323150565595931E-008
 0.260526710198199E-008
 0.176411637245093E-008
 0.253446880032348E-008
 0.126009361318292E-009
 0.121204946918042E-009
 0.238951548783239E-009
 0.160264101015311E-009
 0.166587158289587E-003
 0.267057106602544E-002
 0.323666282531947E-004
 0.106128807952634E-003
 0.369058323149225E-001
 0.791964080945419E-001
 0.120183975973090E-001
 0.205541020919326E-001
 0.391255439698966E-009
 0.398526054514801E-009
 0.422226434818127E-009
 0.406178338222216E-009
 0.132565696224566E-001
 0.564752984795764E-001
 0.898803256073779E-001
 0.450178187399057E-001
 0.507949037672492E-009
 0.397141438273639E-009
 0.451212156178318E-009
 0.436570208474895E-009
 0.120950736129304E-001
 0.258637487885095E-002
 0.663955340734179E-001
 0.207006740707846E-001
 0.228362465171733E-007
 0.110906668139038E-007
 0.105688725691732E-007
 0.121386558992639E-007
 0.749561454545411E-009
 0.144495987605042E-008
 0.812362128124162E-009
 0.925782079648410E-009
 0.995207465028082E+000
 0.129738824926977E+000
 0.283670007631691E+000
 0.418802370171354E+000
 0.578553036329233E-009
 0.716547234494152E-009
 0.487058710861133E-009
 0.580484943568636E-009
 0.820982548980389E-008
 0.201940734362082E-008
 0.325357757571044E-008
 0.334345349397016E-008
 0.961386986345012E-009
 0.193596712733420E-008
 0.137554619454719E-008
 0.134189190294834E-008
 0.217249362528466E-008
 0.144507778026209E-008
 0.148503209634019E-008
 0.163332931385241E-008
 0.284294411380539E-008
 0.718355779073647E-008
 0.130331719590213E-008
 0.249915985931355E-008
 0.177376346155622E-008
 0.259374634122928E-008
 0.344267063986211E-008
 0.248500929078614E-008
 0.458766874920397E-009
 0.380592987535210E-009
 0.150066643757113E-009
 0.227489490682254E-009
 0.147807385769590E+000
 0.147832532747310E+000
 0.253482036952114E+000
 0.393739871517933E+000
 0.253002477075586E-008
 0.112416633534480E-008
 0.605822497121028E-008
 0.192858773052575E-008
 0.327124449914644E-009
 0.266684691800216E-009
 0.345724911679142E-009
 0.312616723393123E-009
 0.803887784461012E-009
 0.543860584583742E-009
 0.781554742543600E-009
 0.689075305088362E-009
 0.436247798283496E-009
 0.443093711816393E-009
 0.395416646563098E-009
 0.418939350883327E-009
 0.617421595320440E-009
 0.514448912887536E-009
 0.736753198603629E-009
 0.607188337966853E-009
 0.261756622056919E-008
 0.141895938299662E-008
 0.569126332032086E-008
 0.251322133153191E-008
 0.373578999692283E-009
 0.478867013143147E-009
 0.376608988001584E-009
 0.409698843440310E-009
 0.920342689340101E-010
 0.523925012460644E-010
 0.668590864096886E-010
 0.719396165408725E-010
 0.148796685803377E-007
 0.215132094226918E-007
 0.220367082517204E-007
 0.200725387985536E-007
 0.118666704338314E-009
 0.193888369763105E-009
 0.219575587404122E-009
 0.169041563168984E-009
 0.398004278653844E-006
 0.550142164772345E-006
 0.127395956188853E-006
 0.398245602530360E-006
 0.176936901009744E-007
 0.487413536631019E-008
 0.224824319709948E-007
 0.128482785105085E-007
 0.787408460233733E-009
 0.102045577854113E-008
 0.159619894093472E-008
 0.106628246132879E-008
 0.564891424825083E-009
 0.491326599547339E-009
 0.352405773861039E-009
 0.461723138762885E-009
 0.641338729327753E-009
 0.740695710066251E-009
 0.103045390009071E-008
 0.783725852193123E-009
 0.313771869323126E-009
 0.267558904451570E-009
 0.241719585181750E-009
 0.262529510459329E-009
 0.140017385693235E+000
 0.675706977764629E-001
 0.237442804263192E+000
 0.178589367173856E+000
 0.328672575190188E-009
 0.366418961593289E-009
 0.514601830632893E-009
 0.397704105631431E-009
 0.222346618099166E-009
 0.173485048780254E-009
 0.202656683375357E-009
 0.205570150268332E-009
 0.243619172532034E-006
 0.418357796197284E-006
 0.539759823789980E-007
 0.104494692255601E-006
 0.106505041530524E-008
 0.127181246122518E-008
 0.857523814478354E-009
 0.106206242805150E-008
 0.420973787445176E-009
 0.567722405203869E-009
 0.593383382865505E-009
 0.512091717612216E-009
 0.131349618884883E-008
 0.915525911724498E-009
 0.168251624695586E-008
 0.127317555077155E-008
 0.406709766406618E-009
 0.268452466639052E-009
 0.289830919674532E-009
 0.320263161699583E-009
 0.109544534801580E-009
 0.184726526783941E-009
 0.150902041719809E-009
 0.145883494504021E-009
 0.671260712182039E-008
 0.149814740133674E-007
 0.123914400559355E-007
 0.123699481361166E-007
 0.395362707296835E-008
 0.540580627722530E-008
 0.939454249925659E-008
 0.532443703373244E-008
 0.534170630873687E-006
 0.815946971497391E-006
 0.179383104589121E-006
 0.404898572675884E-006
 0.109491767774913E-001
 0.496128269776091E-001
 0.244718486226845E-002
 0.181982755112289E-001
 0.365484422549308E-007
 0.224931218369253E-007
 0.596525533130924E-007
 0.391332806752733E-007
 0.804527522588555E-009
 0.113670175921299E-008
 0.112797075761727E-008
 0.102917698896938E-008
 0.419939714998026E-008
 0.134956909678937E-007
 0.564869704553929E-008
 0.642561439993644E-008
 0.943935535146693E-007
 0.448664376940121E-007
 0.204288887644879E-006
 0.111154608809174E-006
 0.200161457394132E-009
 0.232932026792194E-009
 0.254422675036276E-009
 0.228208238046303E-009
 0.679821500564739E-009
 0.493880154832791E-009
 0.500481391291463E-009
 0.550667392190287E-009
 0.389403318282569E-009
 0.367224499342478E-009
 0.312860335584783E-009
 0.352600031229033E-009
 0.658446681220015E-009
 0.482541284216577E-009
 0.464223367306828E-009
 0.525162932460073E-009
 0.159656194242434E-009
 0.235503877388223E-009
 0.212804724639165E-009
 0.196457336243436E-009
 0.926806558607661E-010
 0.134897220842945E-009
 0.116057068515147E-009
 0.106503791552272E-009
 0.249970949364449E-007
 0.295456745504317E-007
 0.711522141852768E-007
 0.303738513963688E-007
 0.529026995769336E-008
 0.412375482585101E-008
 0.571239914411038E-008
 0.510055357159458E-008
 0.143607477120748E-008
 0.221357909997587E-008
 0.133793978827222E-008
 0.158724087503962E-008
 0.301416303354199E-008
 0.161605596106669E-008
 0.162805981803325E-008
 0.186724834182184E-008
 0.242989698051735E-006
 0.680499689375947E-007
 0.109768055907266E-006
 0.116122599196709E-006
 0.328459645422028E-007
 0.643343964899226E-007
 0.235470453329623E-007
 0.303404979017866E-007
 0.256993283932303E-005
 0.185430964498313E-004
 0.109858954267631E-004
 0.143242437013272E-004
 0.399452352607604E-007
 0.520537483250767E-007
 0.283062998020201E-007
 0.373993081373595E-007
 0.489287420705995E-006
 0.179128023557953E-006
 0.778447981521743E-006
 0.397722960245852E-006
 0.190484319954584E-007
 0.117719176072693E-007
 0.239643586196317E-007
 0.195342457847727E-007
 0.851473061559837E-008
 0.993115082819769E-008
 0.151414755261985E-007
 0.101479223209315E-007
 0.890545083165372E-008
 0.699420654611428E-008
 0.400837152229286E-008
 0.701981679331231E-008
 0.994267332274900E-004
 0.450137576715826E-001
 0.714767433744325E+001
 0.398517070633056E-001
 0.464343656634753E-001
 0.785247431494706E-003
 0.700086824228565E-001
 0.354647769928569E-001
 0.116967503320591E-008
 0.117514139763653E-008
 0.376657058445662E-008
 0.153211234045773E-008
 0.276951872798966E-009
 0.261546452372868E-009
 0.337706707935439E-009
 0.292520583852922E-009
 0.128239637844277E+000
 0.257517279932340E+000
 0.173921324347436E+000
 0.192445550096302E+000
 0.315317715075645E-002
 0.255087135045335E-002
 0.326301388512026E-001
 0.137690664947292E-001
 0.236738279790199E-002
 0.226480469415327E-001
 0.231746866052711E-002
 0.127409119955381E-001
 0.587004354786785E-001
 0.119006276557249E-001
 0.444429744577737E-001
 0.182954107642230E-001
 0.228540914217465E-001
 0.143734708595483E-001
 0.172031652417124E+000
 0.128042498676387E-001
 0.174575433682504E-001
 0.291348757283032E-001
 0.554398092530932E-001
 0.112758947688403E-001
 0.711328966386733E-009
 0.997817772089079E-009
 0.673436505010790E-009
 0.772496054054579E-009
 0.110653576872951E-008
 0.697871185219626E-009
 0.112257191678046E-008
 0.983536700527407E-009
 0.315069473922200E-009
 0.473259705838897E-009
 0.525677776510046E-009
 0.432737029964596E-009
 0.281999379452591E-009
 0.270855009386138E-009
 0.454838626010249E-009
 0.333755234861428E-009
 0.537537523326116E-010
 0.934351429815856E-010
 0.683220876895238E-010
 0.732000367503364E-010
 0.216184809572498E-009
 0.145780991439899E-009
 0.160400523916839E-009
 0.173901108957283E-009
 0.969433229116901E-010
 0.122814018966159E-009
 0.172103557032801E-009
 0.125352366756825E-009
 0.533379679915645E-010
 0.138274528051273E-010
 0.375064474275297E-010
 0.306920420498540E-010
 0.493159483686329E-010
 0.354276566527659E-010
 0.127897950655549E-010
 0.275815654780827E-010
 0.253142738440949E-008
 0.162633369515341E-008
 0.242314613637182E-008
 0.223372807763553E-008
 0.635429715723139E-009
 0.100016588316002E-008
 0.709998534659829E-009
 0.754272231024402E-009
 0.140112434543879E-004
 0.220275842218972E-005
 0.136621216837791E-005
 0.242150341593136E-005
 0.154018803419006E+000
 0.359071066393856E+000
 0.300255302243424E+000
 0.205014174773837E+000
 0.321757326976470E-006
 0.937800138113167E-006
 0.525527462321853E-006
 0.510157107399426E-006
 0.281465619872099E-008
 0.262982536814185E-008
 0.192231539532611E-008
 0.233651908880994E-008
 0.811950656302874E-007
 0.333647370029268E-007
 0.610068442046456E-007
 0.613473586810576E-007
 0.469790442239898E-008
 0.560533811772876E-008
 0.400574679330436E-008
 0.469913309872993E-008
 0.282268603357766E-010
 0.402466600378301E-010
 0.107709315096163E-010
 0.268118232694596E-010
 0.486909602215964E-010
 0.864589611425834E-010
 0.597625722680856E-010
 0.596791218788115E-010
 0.250962396185494E-007
 0.113967886880738E-007
 0.165987593693771E-007
 0.156662996859384E-007
 0.407330965752599E-008
 0.653660949255926E-008
 0.685421450595312E-008
 0.604183863197622E-008
 0.150185257181871E-009
 0.982196744669838E-010
 0.152514201435648E-009
 0.132216656955213E-009
 0.149252870250803E-008
 0.634352227398742E-009
 0.894582550138832E-009
 0.983967354032622E-009
 0.308394934207900E-009
 0.383697071935720E-009
 0.403583288337090E-009
 0.353564341921123E-009
 0.417446466283143E-009
 0.363628390020628E-009
 0.475519187193374E-009
 0.420663915062015E-009
 0.587093062270734E-008
 0.356507127438004E-008
 0.346010655542701E-008
 0.389997040182136E-008
 0.481261359461605E-008
 0.391570721776806E-008
 0.656095251349160E-008
 0.489249939610933E-008
 0.137691108290096E-007
 0.890980723854624E-008
 0.150209748698253E-007
 0.133095990728434E-007
 0.265778589589058E-008
 0.171567885563693E-008
 0.206226150215087E-008
 0.217754626405580E-008
 0.302702360782185E-008
 0.375085065516840E-008
 0.243585697235629E-008
 0.303536548207501E-008
 0.147162298465483E-008
 0.234862883519103E-008
 0.196852271660803E-008
 0.186314651238570E-008
 0.107732890132447E-008
 0.103813274099742E-008
 0.746652926198516E-009
 0.945532455424332E-009
 0.581750637355387E-009
 0.361710556957874E-009
 0.527102055520940E-009
 0.477065430005828E-009
 0.357059584911565E-009
 0.540201814939571E-009
 0.528487327876780E-009
 0.435973361192672E-009
 0.681772879705771E-007
 0.253427256659084E-006
 0.883642257117646E-007
 0.893766358685863E-007
 0.295140013374174E-005
 0.200400847254677E-004
 0.121789788231835E-005
 0.504105036424359E-005
 0.186957396297624E-002
 0.102014523686540E-001
 0.110923015875895E-001
 0.477247701106412E-002
 0.165021609523798E+001
 0.126969267011879E+000
 0.136193714350182E+001
 0.167747329146249E+001
 0.964663752935529E-001
 0.514520206049372E-001
 0.577944342043086E-001
 0.849187373931662E-001
 0.557290695666634E+000
 0.127241967572875E+000
 0.259924570649826E+000
 0.274603907301076E+000
 0.848594294434577E-006
 0.171267512316692E-005
 0.523203596093618E-005
 0.146640850478358E-005
 0.535486121765888E-006
 0.183569103333226E-006
 0.129247010451430E-006
 0.182446314764462E-006
 0.534807965010174E-008
 0.582561828798727E-008
 0.480116423653857E-008
 0.528702638646901E-008
 0.313280502502545E-009
 0.424597892076906E-009
 0.524230789743466E-009
 0.380244553600068E-009
 0.112235819871984E-006
 0.156689431364462E-006
 0.265058665277896E-006
 0.147407723831871E-006
 0.330832088482898E-008
 0.253005292218122E-008
 0.377986180529492E-008
 0.318363549136133E-008
 0.217374663557945E-009
 0.181374647731514E-009
 0.186771055737792E-009
 0.190133717891271E-009
 0.363066789359491E-009
 0.270839051911994E-009
 0.319288124511369E-009
 0.311498611654875E-009
 0.175786154097314E-010
 0.468335161159471E-010
 0.506477831895608E-010
 0.343067031570635E-010
 0.115035213931786E-009
 0.699925023232298E-010
 0.688743288534859E-010
 0.867769647298551E-010
 0.709133395672597E-009
 0.154591788680223E-008
 0.941086443629892E-009
 0.926928656898323E-009
 0.321082992869627E-009
 0.443047148672057E-009
 0.340166355644578E-009
 0.366111836154904E-009
 0.274568904476783E-009
 0.236328157167825E-009
 0.207746014323255E-009
 0.240259218672955E-009
 0.236933905438019E-001
 0.924012080152761E-001
 0.452292835495064E-001
 0.309003517145370E-001
 0.175821254422623E-009
 0.237755382786476E-009
 0.186613516179891E-009
 0.201319890366253E-009
 0.215403280955605E-009
 0.270268135617281E-009
 0.288714678774293E-009
 0.252629689756151E-009
 0.146926057342882E-008
 0.129346038398088E-008
 0.173168610473208E-008
 0.147649701948799E-008
 0.153796435407879E-009
 0.947894079974371E-010
 0.140247938466141E-009
 0.121554724537498E-009
 0.679450600510241E-009
 0.935854830642895E-009
 0.721276908190292E-009
 0.760715452314376E-009
 0.367076009149587E-005
 0.783940497012751E-005
 0.897746917271661E-004
 0.413474255624224E-005
 0.150691448204933E+000
 0.823142085762348E-001
 0.538833500505251E-001
 0.811875435417781E-001
 0.135353544406524E-003
 0.556578236164500E-003
 0.882421375056625E-002
 0.312625107072292E-003
 0.117863537572033E-001
 0.280260890019523E-001
 0.602184271243514E-002
 0.391403752646675E-002
 0.341933155493649E-001
 0.258375143623310E-001
 0.143514210180059E-001
 0.224941252301427E-001
 0.142912326456326E+000
 0.852216456961680E-001
 0.185355440943439E+000
 0.113952143324754E+000
 0.224263523261906E+001
 0.461543565855199E+000
 0.288551058808016E+001
 0.182905487339683E+001
 0.889448727044764E-010
 0.703637328223073E-010
 0.119012027284876E-009
 0.884563846349251E-010
 0.392942119908218E+000
 0.322191455068981E+000
 0.391210500141588E+000
 0.378255690936222E+000
 0.447452197527768E-001
 0.353305452309570E-001
 0.246532799055582E-001
 0.464443543671510E-001
 0.314335421002224E-007
 0.559330075051191E-007
 0.412165561965120E-007
 0.415513124338060E-007
 0.711621005423446E-007
 0.385475061360971E-007
 0.252578528123239E-007
 0.403043241091168E-007
 0.226365118376464E-007
 0.259865825182924E-007
 0.323383589289498E-007
 0.261792873503645E-007
 0.400621103042536E-008
 0.383737350822328E-008
 0.489065065568572E-008
 0.411372368269884E-008
 0.131813315381474E-006
 0.125258644172986E-006
 0.587554586019857E-007
 0.121204055557408E-006
 0.134516118325116E-009
 0.127724177018360E-009
 0.836387095325130E-010
 0.112004139548131E-009
 0.100968358527447E-009
 0.120902771119068E-009
 0.749951257680616E-010
 0.100521036022466E-009
 0.375081914357464E-010
 0.271295924722304E-010
 0.906832236290704E-011
 0.183928501591833E-010
 0.537807142447054E-010
 0.842370244267392E-010
 0.924204200282139E-010
 0.751302347106057E-010
 0.171530399385909E-009
 0.274158560021674E-009
 0.173344839251802E-009
 0.193208343001110E-009
 0.328660207368606E-009
 0.340766382384952E-009
 0.176506995791663E-009
 0.249297733133195E-009
 0.512992985391301E-001
 0.101707447154623E+000
 0.442077669259936E-001
 0.692946327232421E-001
 0.827319412539926E-001
 0.144980162811151E-001
 0.202019576880437E-001
 0.500106750329119E-001
 0.168240801356652E-001
 0.479471652220564E-001
 0.466832460199475E-001
 0.202234531453605E-001
 0.299303799192334E-001
 0.316306370927666E-001
 0.121402002496922E-001
 0.207176857055208E-001
 0.202961391437704E-002
 0.183996779603379E-002
 0.170590770636128E-001
 0.869775065683489E-002
 0.128293559686097E-001
 0.235198423207392E-002
 0.241985878128440E-002
 0.113188219108411E-001
 0.164495593297980E+000
 0.318725903481569E+000
 0.820100556082810E+000
 0.819175741450830E-001
 0.137987902649741E+000
 0.461403160785602E-001
 0.651931684289767E-001
 0.470213360215051E-001
 0.148388746595721E-001
 0.575195381368088E-001
 0.412265508883960E-002
 0.636727429818693E-001
 0.111090158422238E+000
 0.280049303020534E-001
 0.661722620005401E-001
 0.571148397872672E-001
 0.278648059399053E-001
 0.339966075451529E-001
 0.736832745318936E-001
 0.246790832930806E-001
 0.121748816416885E-001
 0.994841740992034E-002
 0.545719849506985E-001
 0.935162064721267E-002
 0.360670198554590E-001
 0.335379237418246E-001
 0.407012545888864E-001
 0.274975053894761E-001
 0.204935301701488E+000
 0.518745651403200E+000
 0.373962971279790E+000
 0.452893740943545E+000
 0.589039025090033E-001
 0.198114194553793E-001
 0.720515864212068E-001
 0.294421200940937E-001
 0.281087772734958E+001
 0.735388021587398E+000
 0.241450605987468E+001
 0.209064543634359E+001
 0.997918791094610E-001
 0.105923556678293E+000
 0.374345947792682E-001
 0.979442310283986E-001
 0.177491786940250E+000
 0.309122641360760E+000
 0.141001281096076E+000
 0.160339178850105E+000
 0.297476252402990E-001
 0.606084892598796E-001
 0.286718515584188E-001
 0.924392808454705E-001
 0.169724467419000E+000
 0.387383981619415E-001
 0.356576961946733E-001
 0.620604972479443E-001
 0.142179886858878E-001
 0.781410737097103E-002
 0.102908424259089E-001
 0.772564226031605E-003
 0.586769427578484E-001
 0.163296883566204E+000
 0.850652579166384E-001
 0.342807066352802E-001
 0.656979213913163E+000
 0.410475092556430E+000
 0.570387631884883E+000
 0.649401000454316E+000
 0.189672670648227E+000
 0.135638682240508E+000
 0.971610557662470E-001
 0.110555655098133E+000
 0.259947048603874E+000
 0.730627900287347E+000
 0.239776739248378E+000
 0.247422971548731E+000
 0.414214765855114E+000
 0.198515799686725E+000
 0.291133110623780E+001
 0.158675683498086E+001
 0.290138248615249E-001
 0.155678567634926E-001
 0.480137477527940E-001
 0.420379900100135E-001
 0.119234694394879E-001
 0.215436592398806E-001
 0.845883012884821E-001
 0.174866738708061E-001
 0.369280676341767E-001
 0.197747554227568E-001
 0.100619560603784E+000
 0.325313235674649E-001
 0.175708039281213E+000
 0.323855873320482E+001
 0.173969896540554E+000
 0.982130198266306E-001
 0.151940757812465E-001
 0.563004868332838E-001