# vtk DataFile Version 3.0
Unstructured Grid
ASCII
DATASET UNSTRUCTURED_GRID
FIELD FieldData 1
TIME 1 1 float
  0.480083E+03
POINTS         2102 double
 0.000000000000000E+000 0.000000000000000E+000 0.000000000000000E+000
 0.100000000000000E+001 0.000000000000000E+000 0.000000000000000E+000
 0.100000000000000E+001 0.100000000000000E+001 0.000000000000000E+000
 0.000000000000000E+000 0.100000000000000E+001 0.000000000000000E+000
 0.125000000000000E+000 0.250000000000000E+000 0.000000000000000E+000
 0.375000000000000E+000 0.250000000000000E+000 0.000000000000000E+000
 0.375000000000000E+000 0.750000000000000E+000 0.000000000000000E+000
 0.125000000000000E+000 0.750000000000000E+000 0.000000000000000E+000
 0.625000000000000E+000 0.250000000000000E+000 0.000000000000000E+000
 0.875000000000000E+000 0.250000000000000E+000 0.000000000000000E+000
 0.875000000000000E+000 0.750000000000000E+000 0.000000000000000E+000
 0.625000000000000E+000 0.750000000000000E+000 0.000000000000000E+000
 0.100000000000000E+001 0.500000000000000E+000 0.000000000000000E+000
 0.000000000000000E+000 0.500000000000000E+000 0.000000000000000E+000
 0.500000000000000E+000 0.000000000000000E+000 0.000000000000000E+000
 0.125000000000000E+000 0.500000000000000E+000 0.000000000000000E+000
 0.000000000000000E+000 0.750000000000000E+000 0.000000000000000E+000
 0.000000000000000E+000 0.250000000000000E+000 0.000000000000000E+000
 0.000000000000000E+000 0.875000000000000E+000 0.000000000000000E+000
 0.000000000000000E+000 0.125000000000000E+000 0.000000000000000E+000
 0.000000000000000E+000 0.812500000000000E+000 0.000000000000000E+000
 0.625000000000000E-001 0.812500000000000E+000 0.000000000000000E+000
 0.125000000000000E+000 0.375000000000000E+000 0.000000000000000E+000
 0.000000000000000E+000 0.375000000000000E+000 0.000000000000000E+000
 0.125000000000000E+000 0.625000000000000E+000 0.000000000000000E+000
 0.312500000000000E-001 0.781250000000000E+000 0.000000000000000E+000
 0.000000000000000E+000 0.625000000000000E+000 0.000000000000000E+000
 0.781250000000000E-001 0.765625000000000E+000 0.000000000000000E+000
 0.312500000000000E-001 0.843750000000000E+000 0.000000000000000E+000
 0.500000000000000E+000 0.100000000000000E+001 0.000000000000000E+000
 0.852352799227800E-001 0.850726351351351E+000 0.000000000000000E+000
 0.531250000000000E-001 0.896875000000000E+000 0.000000000000000E+000
 0.128125000000000E+000 0.862500000000000E+000 0.000000000000000E+000
 0.125000000000000E+000 0.100000000000000E+001 0.000000000000000E+000
 0.250000000000000E+000 0.750000000000000E+000 0.000000000000000E+000
 0.000000000000000E+000 0.937500000000000E+000 0.000000000000000E+000
 0.250000000000000E+000 0.100000000000000E+001 0.000000000000000E+000
 0.117915518486872E+000 0.805415518486872E+000 0.000000000000000E+000
 0.201656717908302E+000 0.819893736067327E+000 0.000000000000000E+000
 0.181985294117647E-001 0.906250000000000E+000 0.000000000000000E+000
 0.157158578892515E+000 0.827852167423944E+000 0.000000000000000E+000
 0.187500000000000E+000 0.750000000000000E+000 0.000000000000000E+000
 0.190370748034901E+000 0.885171153579592E+000 0.000000000000000E+000
 0.173219498992632E+000 0.789273026175030E+000 0.000000000000000E+000
 0.125000000000000E+000 0.687500000000000E+000 0.000000000000000E+000
 0.000000000000000E+000 0.687500000000000E+000 0.000000000000000E+000
 0.441080729166667E-001 0.732584635416667E+000 0.000000000000000E+000
 0.625000000000000E-001 0.100000000000000E+001 0.000000000000000E+000
 0.324539302647226E+000 0.874753539998500E+000 0.000000000000000E+000
 0.138239725210285E+000 0.931515391482052E+000 0.000000000000000E+000
 0.218750000000000E+000 0.780050991479902E+000 0.000000000000000E+000
 0.282595248614805E+000 0.815169690490412E+000 0.000000000000000E+000
 0.241894668607517E+000 0.813568527927710E+000 0.000000000000000E+000
 0.259830219207979E+000 0.875750318441249E+000 0.000000000000000E+000
 0.375000000000000E+000 0.687500000000000E+000 0.000000000000000E+000
 0.894072114981556E-001 0.718750000000000E+000 0.000000000000000E+000
 0.156250000000000E+000 0.718750000000000E+000 0.000000000000000E+000
 0.171875000000000E+000 0.671875000000000E+000 0.000000000000000E+000
 0.208984375000000E+000 0.705078125000000E+000 0.000000000000000E+000
 0.187500000000000E+000 0.100000000000000E+001 0.000000000000000E+000
 0.100742481264918E+000 0.901762004578004E+000 0.000000000000000E+000
 0.897955050140944E-001 0.954063112745616E+000 0.000000000000000E+000
 0.454072994832874E-001 0.943019090840959E+000 0.000000000000000E+000
 0.312500000000000E-001 0.978320013898389E+000 0.000000000000000E+000
 0.151802024837252E+000 0.894278844061106E+000 0.000000000000000E+000
 0.312500000000000E+000 0.750000000000000E+000 0.000000000000000E+000
 0.349824395642442E+000 0.812398913150492E+000 0.000000000000000E+000
 0.291845278223558E+000 0.853213315943310E+000 0.000000000000000E+000
 0.312500000000000E+000 0.100000000000000E+001 0.000000000000000E+000
 0.221920040905101E+000 0.857011448773234E+000 0.000000000000000E+000
 0.610875609743251E-001 0.656250000000000E+000 0.000000000000000E+000
 0.575501251937821E-001 0.695518883967223E+000 0.000000000000000E+000
 0.229414059980049E+000 0.912264575939035E+000 0.000000000000000E+000
 0.267409472953924E+000 0.912989160289387E+000 0.000000000000000E+000
 0.247617500704634E+000 0.954276202159214E+000 0.000000000000000E+000
 0.186156415773925E+000 0.932922904662876E+000 0.000000000000000E+000
 0.161177138586098E+000 0.966975254724362E+000 0.000000000000000E+000
 0.281250000000000E+000 0.775106270475024E+000 0.000000000000000E+000
 0.232477697233870E+000 0.641481728091557E+000 0.000000000000000E+000
 0.375000000000000E+000 0.500000000000000E+000 0.000000000000000E+000
 0.343750000000000E+000 0.773669964712841E+000 0.000000000000000E+000
 0.500000000000000E+000 0.836710937419870E+000 0.000000000000000E+000
 0.625000000000000E-001 0.460493798860530E+000 0.000000000000000E+000
 0.225506433867106E-001 0.656250000000000E+000 0.000000000000000E+000
 0.625000000000000E-001 0.578156919744020E+000 0.000000000000000E+000
 0.100683627400278E+000 0.656250000000000E+000 0.000000000000000E+000
 0.808855941873017E-001 0.617548766045778E+000 0.000000000000000E+000
 0.396623706279028E-001 0.612802597169787E+000 0.000000000000000E+000
 0.000000000000000E+000 0.562500000000000E+000 0.000000000000000E+000
 0.209099082089092E+000 0.966015356758449E+000 0.000000000000000E+000
 0.208176344887401E+000 0.668642063067022E+000 0.000000000000000E+000
 0.375000000000000E+000 0.625000000000000E+000 0.000000000000000E+000
 0.281250000000000E+000 0.727693574222975E+000 0.000000000000000E+000
 0.410395729589754E-001 0.531250000000000E+000 0.000000000000000E+000
 0.243044505147503E+000 0.715165207256627E+000 0.000000000000000E+000
 0.427668699245901E+000 0.807527989856971E+000 0.000000000000000E+000
 0.375000000000000E+000 0.100000000000000E+001 0.000000000000000E+000
 0.396556497766215E+000 0.872516538744482E+000 0.000000000000000E+000
 0.125000000000000E+000 0.562500000000000E+000 0.000000000000000E+000
 0.386020873411304E-001 0.491878123024719E+000 0.000000000000000E+000
 0.837862679783012E-001 0.496009823563561E+000 0.000000000000000E+000
 0.181474703505393E+000 0.615400296494607E+000 0.000000000000000E+000
 0.156642498481761E+000 0.640232501518239E+000 0.000000000000000E+000
 0.148741293073547E+000 0.593750000000000E+000 0.000000000000000E+000
 0.198570897886273E+000 0.531250000000000E+000 0.000000000000000E+000
 0.186280074550956E+000 0.572564766212389E+000 0.000000000000000E+000
 0.261115628859886E+000 0.572342169151976E+000 0.000000000000000E+000
 0.223664380580028E+000 0.561200712513239E+000 0.000000000000000E+000
 0.260913847788851E+000 0.504504802962447E+000 0.000000000000000E+000
 0.220403809070327E+000 0.602182935170118E+000 0.000000000000000E+000
 0.280942357260745E+000 0.670965807217831E+000 0.000000000000000E+000
 0.303530083216233E+000 0.699208028468857E+000 0.000000000000000E+000
 0.244300952472090E+000 0.677895460994186E+000 0.000000000000000E+000
 0.278676255979588E+000 0.620116626474426E+000 0.000000000000000E+000
 0.375000000000000E+000 0.562500000000000E+000 0.000000000000000E+000
 0.294783395930685E+000 0.587081428049465E+000 0.000000000000000E+000
 0.296390010773290E+000 0.538188197482711E+000 0.000000000000000E+000
 0.326808615275446E+000 0.623140446700340E+000 0.000000000000000E+000
 0.375000000000000E+000 0.375000000000000E+000 0.000000000000000E+000
 0.341600259444201E+000 0.531250000000000E+000 0.000000000000000E+000
 0.337040360926244E+000 0.581802448479955E+000 0.000000000000000E+000
 0.313454820588085E+000 0.656240056545723E+000 0.000000000000000E+000
 0.244117968371280E+000 0.386059455330322E+000 0.000000000000000E+000
 0.316730626055850E+000 0.471195859600445E+000 0.000000000000000E+000
 0.343361747898823E+000 0.718361747898823E+000 0.000000000000000E+000
 0.387582141166944E+000 0.791354577928815E+000 0.000000000000000E+000
 0.394629419637968E+000 0.831652479273046E+000 0.000000000000000E+000
 0.359139968398398E+000 0.852480346691833E+000 0.000000000000000E+000
 0.449407668689709E+000 0.857876667231944E+000 0.000000000000000E+000
 0.504433083654504E+000 0.918355468709935E+000 0.000000000000000E+000
 0.438910290808154E+000 0.922698775777408E+000 0.000000000000000E+000
 0.487684842153978E+000 0.878322236197629E+000 0.000000000000000E+000
 0.750000000000000E+000 0.100000000000000E+001 0.000000000000000E+000
 0.429264219376497E+000 0.887875644335434E+000 0.000000000000000E+000
 0.297282757956014E+000 0.952697072250340E+000 0.000000000000000E+000
 0.308758340495749E+000 0.912972519020668E+000 0.000000000000000E+000
 0.353713070703707E+000 0.947478792032462E+000 0.000000000000000E+000
 0.343750000000000E+000 0.982091257636542E+000 0.000000000000000E+000
 0.437500000000000E+000 0.100000000000000E+001 0.000000000000000E+000
 0.386196294810884E+000 0.916319687483247E+000 0.000000000000000E+000
[...]
CELL_DATA         4076
SCALARS tdens double 1
LOOKUP_TABLE default
 0.100000000000000E-011
 0.100000000000000E-011
 0.100000000000000E-011
 0.100000000000000E-011
 0.100000000000000E-011
 0.100000000000000E-011
 0.100000000000000E-011
 0.100000000000000E-011
 0.112965562128918E+000
 0.498029053792147E+000
 0.416848522754539E-002
 0.292405207318398E+000
 0.100000000000000E-011
 0.100000000000000E-011
 0.100000000000000E-011
 0.100000000000000E-011
 0.100000000000000E-011
 0.100000000000000E-011
 0.100000000000000E-011
 0.100000000000000E-011
 0.100000000000000E-011
 0.100000000000000E-011
 0.100000000000000E-011
 0.100000000000000E-011
 0.213055566137245E-002
 0.230296687612179E-002
 0.295125396331634E-001
 0.149202811182623E-001
 0.100000000000000E-011
 0.100000000000000E-011
 0.100000000000000E-011
 0.100000000000000E-011
 0.100000000000000E-011
 0.100000000000000E-011
 0.100000000000000E-011
 0.100000000000000E-011
 0.100000000000000E-011
 0.100000000000000E-011
 0.100000000000000E-011
 0.100000000000000E-011
 0.100000000000000E-011
 0.100000000000000E-011
 0.100000000000000E-011
 0.100000000000000E-011
 0.100000000000000E-011
 0.100000000000000E-011
 0.100000000000000E-011
 0.100000000000000E-011
 0.100000000000000E-011
 0.100000000000000E-011
 0.100000000000000E-011
 0.100000000000000E-011
 0.265968517334736E-002
 0.268440746239699E-002
 0.116019907061073E+000
 0.166514277138554E-001
 0.100000000000000E-011
 0.100000000000000E-011
 0.100000000000000E-011
 0.100000000000000E-011
 0.100000000000000E-011
 0.100000000000000E-011
 0.100000000000000E-011
 0.100000000000000E-011
 0.100000000000000E-011
 0.100000000000000E-011
 0.100000000000000E-011
 0.100000000000000E-011
 0.100000000000000E-011
 0.100000000000000E-011
 0.100000000000000E-011
 0.100000000000000E-011
 0.100000000000000E-011
 0.100000000000000E-011
 0.100000000000000E-011
 0.100000000000000E-011
 0.100000000000000E-011
 0.100000000000000E-011
 0.100000000000000E-011
 0.100000000000000E-011
 0.346231318285599E-001
 0.940209089341366E-001
 0.118098858899806E-001
 0.179803035229288E-001
 0.100000000000000E-011
 0.100000000000000E-011
 0.100000000000000E-011
 0.100000000000000E-011
 0.110165200117429E-001
 0.781592527686258E-001
 0.948081038829085E-001
 0.306139368261499E-001
 0.100000000000000E-011
 0.100000000000000E-011
 0.100000000000000E-011
 0.100000000000000E-011
 0.122582703546510E-001
 0.250447838403893E-002
 0.735399245145925E-001
 0.209029903169367E-001
 0.100000000000000E-011
 0.100000000000000E-011
 0.100000000000000E-011
 0.100000000000000E-011
 0.100000000000000E-011
 0.100000000000000E-011
 0.100000000000000E-011
 0.100000000000000E-011
 0.112323577897662E+001
 0.100000000000000E-011
 0.191533357271017E+000
 0.501664448990276E+000
 0.100000000000000E-011
 0.100000000000000E-011
 0.100000000000000E-011
 0.100000000000000E-011
 0.100000000000000E-011
 0.100000000000000E-011
 0.100000000000000E-011
 0.100000000000000E-011
 0.100000000000000E-011
 0.100000000000000E-011
 0.100000000000000E-011
 0.100000000000000E-011
 0.100000000000000E-011
 0.100000000000000E-011
 0.100000000000000E-011
 0.100000000000000E-011
 0.100000000000000E-011
 0.100000000000000E-011
 0.100000000000000E-011
 0.100000000000000E-011
 0.100000000000000E-011
 0.100000000000000E-011
 0.100000000000000E-011
 0.100000000000000E-011
 0.100000000000000E-011
 0.100000000000000E-011
 0.100000000000000E-011
 0.100000000000000E-011
 0.247576609751135E+000
 0.100000000000000E-011
 0.305207428986287E+000
 0.445411951206017E+000
 0.100000000000000E-011
 0.100000000000000E-011
 0.100000000000000E-011
 0.100000000000000E-011
 0.100000000000000E-011
 0.100000000000000E-011
 0.100000000000000E-011
 0.100000000000000E-011
 0.100000000000000E-011
 0.100000000000000E-011
 0.100000000000000E-011
 0.100000000000000E-011
 0.100000000000000E-011
 0.100000000000000E-011
 0.100000000000000E-011
 0.100000000000000E-011
 0.100000000000000E-011
 0.100000000000000E-011
 0.100000000000000E-011
 0.100000000000000E-011
 0.100000000000000E-011
 0.100000000000000E-011
 0.100000000000000E-011
 0.100000000000000E-011
 0.100000000000000E-011
 0.100000000000000E-011
 0.100000000000000E-011
 0.100000000000000E-011
 0.100000000000000E-011
 0.100000000000000E-011
 0.100000000000000E-011
 0.100000000000000E-011
 0.100000000000000E-011
 0.100000000000000E-011
 0.100000000000000E-011
 0.100000000000000E-011
 0.100000000000000E-011
 0.100000000000000E-011
 0.100000000000000E-011
 0.100000000000000E-011
 0.100000000000000E-011
 0.100000000000000E-011
 0.100000000000000E-011
 0.100000000000000E-011
 0.100000000000000E-011
 0.100000000000000E-011
 0.100000000000000E-011
 0.100000000000000E-011
 0.100000000000000E-011
 0.100000000000000E-011
 0.100000000000000E-011
 0.100000000000000E-011
 0.100000000000000E-011
 0.100000000000000E-011
 0.100000000000000E-011
 0.100000000000000E-011
 0.100000000000000E-011
 0.100000000000000E-011
 0.100000000000000E-011
 0.100000000000000E-011
 0.100000000000000E-011
 0.100000000000000E-011
 0.100000000000000E-011
 0.100000000000000E-011
 0.116147916377110E+000
 0.166962295097164E+000
 0.195574684760702E+000
 0.118789479396494E+000
 0.100000000000000E-011
 0.100000000000000E-011
 0.100000000000000E-011
 0.100000000000000E-011
 0.100000000000000E-011
 0.100000000000000E-011
 0.100000000000000E-011
 0.100000000000000E-011
 0.100000000000000E-011
 0.100000000000000E-011
 0.100000000000000E-011
 0.100000000000000E-011
 0.100000000000000E-011
 0.100000000000000E-011
 0.100000000000000E-011
 0.100000000000000E-011
 0.100000000000000E-011
 0.100000000000000E-011
 0.100000000000000E-011
 0.100000000000000E-011
 0.100000000000000E-011
 0.100000000000000E-011
 0.100000000000000E-011
 0.100000000000000E-011
 0.100000000000000E-011
 0.100000000000000E-011
 0.100000000000000E-011
 0.100000000000000E-011
 0.100000000000000E-011
 0.100000000000000E-011
 0.100000000000000E-011
 0.100000000000000E-011
 0.100000000000000E-011
 0.100000000000000E-011
 0.100000000000000E-011
 0.100000000000000E-011
 0.100000000000000E-011
 0.100000000000000E-011
 0.100000000000000E-011
 0.100000000000000E-011
 0.100000000000000E-011
 0.100000000000000E-011
 0.100000000000000E-011
 0.100000000000000E-011
 0.113532413148510E-001
 0.610324612116676E-001
 0.240551132700728E-002
 0.185719960087106E-001
 0.100000000000000E-011
 0.100000000000000E-011
 0.100000000000000E-011
 0.100000000000000E-011
 0.100000000000000E-011
 0.100000000000000E-011
 0.100000000000000E-011
 0.100000000000000E-011
 0.100000000000000E-011
 0.100000000000000E-011
 0.100000000000000E-011
 0.100000000000000E-011
 0.100000000000000E-011
 0.100000000000000E-011
 0.100000000000000E-011
 0.100000000000000E-011
 0.100000000000000E-011
 0.100000000000000E-011
 0.100000000000000E-011
 0.100000000000000E-011
 0.100000000000000E-011
 0.100000000000000E-011
 0.100000000000000E-011
 0.100000000000000E-011
 0.100000000000000E-011
 0.100000000000000E-011
 0.100000000000000E-011
 0.100000000000000E-011
 0.100000000000000E-011
 0.100000000000000E-011
 0.100000000000000E-011
 0.100000000000000E-011
 0.100000000000000E-011
 0.100000000000000E-011
 0.100000000000000E-011
 0.100000000000000E-011
 0.100000000000000E-011
 0.100000000000000E-011
 0.100000000000000E-011
 0.100000000000000E-011
 0.100000000000000E-011
 0.100000000000000E-011
 0.100000000000000E-011
 0.100000000000000E-011
 0.100000000000000E-011
 0.100000000000000E-011
 0.100000000000000E-011
 0.100000000000000E-011
 0.100000000000000E-011
 0.100000000000000E-011
 0.100000000000000E-011
 0.100000000000000E-011
 0.100000000000000E-011
 0.100000000000000E-011
 0.100000000000000E-011
 0.100000000000000E-011
 0.100000000000000E-011
 0.100000000000000E-011
 0.100000000000000E-011
 0.100000000000000E-011
 0.100000000000000E-011
 0.100000000000000E-011
 0.100000000000000E-011
 0.100000000000000E-011
 0.100000000000000E-011
 0.100000000000000E-011
 0.100000000000000E-011
 0.100000000000000E-011
 0.100000000000000E-011
 0.100000000000000E-011
 0.100000000000000E-011
 0.100000000000000E-011
 0.100000000000000E-011
 0.100000000000000E-011
 0.100000000000000E-011
 0.100000000000000E-011
 0.100000000000000E-011
 0.100000000000000E-011
 0.100000000000000E-011
 0.100000000000000E-011
 0.100000000000000E-011
 0.100000000000000E-011
 0.100000000000000E-011
 0.100000000000000E-011
 0.100000000000000E-011
 0.100000000000000E-011
 0.100000000000000E-011
 0.100000000000000E-011
 0.100000000000000E-011
 0.100000000000000E-011
 0.950424143495047E+001
 0.100000000000000E-011
 0.429039110241028E-001
 0.100000000000000E-011
 0.677785365242665E-001
 0.294223804549249E-001
 0.100000000000000E-011
 0.100000000000000E-011
 0.100000000000000E-011
 0.100000000000000E-011
 0.100000000000000E-011
 0.100000000000000E-011
 0.100000000000000E-011
 0.100000000000000E-011
 0.463700894845500E-002
 0.679981705582038E+000
 0.530433413973240E+000
 0.808248806052912E+000
 0.296731916769463E-002
 0.273423295432768E-002
 0.220494145556071E-001
 0.133579418567774E-001
 0.241835309962086E-002
 0.217377285986850E-001
 0.209566225055017E-002
 0.128257908363055E-001
 0.253758663487909E-001
 0.198891728362751E-001
 0.102969075222219E+000
 0.584145417180249E-001
 0.293570417902777E-002
 0.288270763921254E-002
 0.157366246832022E+000
 0.161508520492733E-001
 0.238126695162474E-001
 0.634653115563112E-002
 0.879796922185260E-001
 0.100000000000000E-011
 0.100000000000000E-011
 0.100000000000000E-011
 0.100000000000000E-011
 0.100000000000000E-011
 0.100000000000000E-011
 0.100000000000000E-011
 0.100000000000000E-011
 0.100000000000000E-011
 0.100000000000000E-011
 0.100000000000000E-011
 0.100000000000000E-011
 0.100000000000000E-011
 0.100000000000000E-011
 0.100000000000000E-011
 0.100000000000000E-011
 0.100000000000000E-011
 0.100000000000000E-011
 0.100000000000000E-011
 0.100000000000000E-011
 0.100000000000000E-011
 0.100000000000000E-011
 0.100000000000000E-011
 0.100000000000000E-011
 0.100000000000000E-011
 0.100000000000000E-011
 0.100000000000000E-011
 0.100000000000000E-011
 0.100000000000000E-011
 0.100000000000000E-011
 0.100000000000000E-011
 0.100000000000000E-011
 0.100000000000000E-011
 0.100000000000000E-011
 0.100000000000000E-011
 0.100000000000000E-011
 0.100000000000000E-011
 0.100000000000000E-011
 0.100000000000000E-011
 0.100000000000000E-011
 0.100000000000000E-011
 0.100000000000000E-011
 0.100000000000000E-011
 0.100000000000000E-011
 0.100000000000000E-011
 0.100000000000000E-011
 0.100000000000000E-011
 0.100000000000000E-011
 0.100000000000000E-011
 0.271561911781649E+000
 0.686435709493661E+000
 0.377957352792865E+000
 0.326215162797563E+000
 0.100000000000000E-011
 0.100000000000000E-011
 0.100000000000000E-011
 0.100000000000000E-011
 0.100000000000000E-011
 0.100000000000000E-011
 0.100000000000000E-011
 0.100000000000000E-011
 0.100000000000000E-011
 0.100000000000000E-011
 0.100000000000000E-011
 0.100000000000000E-011
 0.100000000000000E-011
 0.100000000000000E-011
 0.100000000000000E-011
 0.100000000000000E-011
 0.100000000000000E-011
 0.100000000000000E-011
 0.100000000000000E-011
 0.100000000000000E-011
 0.100000000000000E-011
 0.100000000000000E-011
 0.100000000000000E-011
 0.100000000000000E-011
 0.100000000000000E-011
 0.100000000000000E-011
 0.100000000000000E-011
 0.100000000000000E-011
 0.100000000000000E-011
 0.100000000000000E-011
 0.100000000000000E-011
 0.100000000000000E-011
 0.100000000000000E-011
 0.100000000000000E-011
 0.100000000000000E-011
 0.100000000000000E-011
 0.100000000000000E-011
 0.100000000000000E-011
 0.100000000000000E-011
 0.100000000000000E-011
 0.100000000000000E-011
 0.100000000000000E-011
 0.100000000000000E-011
 0.100000000000000E-011
 0.100000000000000E-011
 0.100000000000000E-011
 0.100000000000000E-011
 0.100000000000000E-011
 0.100000000000000E-011
 0.100000000000000E-011
 0.100000000000000E-011
 0.100000000000000E-011
 0.100000000000000E-011
 0.100000000000000E-011
 0.100000000000000E-011
 0.100000000000000E-011
 0.100000000000000E-011
 0.100000000000000E-011
 0.100000000000000E-011
 0.100000000000000E-011
 0.100000000000000E-011
 0.100000000000000E-011
 0.100000000000000E-011
 0.100000000000000E-011
 0.100000000000000E-011
 0.100000000000000E-011
 0.100000000000000E-011
 0.100000000000000E-011
 0.100000000000000E-011
 0.100000000000000E-011
 0.100000000000000E-011
 0.100000000000000E-011
 0.100000000000000E-011
 0.100000000000000E-011
 0.100000000000000E-011
 0.100000000000000E-011
 0.100000000000000E-011
 0.100000000000000E-011
 0.100000000000000E-011
 0.100000000000000E-011
 0.100000000000000E-011
 0.100000000000000E-011
 0.100000000000000E-011
 0.100000000000000E-011
 0.100000000000000E-011
 0.100000000000000E-011
 0.100000000000000E-011
 0.100000000000000E-011
 0.100000000000000E-011
 0.100000000000000E-011
 0.100000000000000E-011
 0.100000000000000E-011
 0.200250893716743E-002
 0.257752931589551E-001
 0.156090186350636E-002
 0.792050431706413E-002
 0.191139554680636E+001
 0.972987305599447E-002
 0.166896827520852E+001
 0.171004411505424E+001
 0.128747934169862E+000
 0.100000000000000E-011
 0.712771533665064E-001
 0.165240343618806E+000
 0.808525670890301E+000
 0.476970961980925E-002
 0.301422958840842E+000
 0.369241258347518E+000
 0.100000000000000E-011
 0.100000000000000E-011
 0.100000000000000E-011
 0.100000000000000E-011
 0.100000000000000E-011
 0.100000000000000E-011
 0.100000000000000E-011
 0.100000000000000E-011
 0.100000000000000E-011
 0.100000000000000E-011
 0.100000000000000E-011
 0.100000000000000E-011
 0.100000000000000E-011
 0.100000000000000E-011
 0.100000000000000E-011
 0.100000000000000E-011
 0.100000000000000E-011
 0.100000000000000E-011
 0.100000000000000E-011
 0.100000000000000E-011
 0.100000000000000E-011
 0.100000000000000E-011
 0.100000000000000E-011
 0.100000000000000E-011
 0.100000000000000E-011
 0.100000000000000E-011
 0.100000000000000E-011
 0.100000000000000E-011
 0.100000000000000E-011
 0.100000000000000E-011
 0.100000000000000E-011
 0.100000000000000E-011
 0.100000000000000E-011
 0.100000000000000E-011
 0.100000000000000E-011
 0.100000000000000E-011
 0.100000000000000E-011
 0.100000000000000E-011
 0.100000000000000E-011
 0.100000000000000E-011
 0.100000000000000E-011
 0.100000000000000E-011
 0.100000000000000E-011
 0.100000000000000E-011
 0.100000000000000E-011
 0.100000000000000E-011
 0.100000000000000E-011
 0.100000000000000E-011
 0.100000000000000E-011
 0.100000000000000E-011
 0.100000000000000E-011
 0.100000000000000E-011
 0.100000000000000E-011
 0.133436666889360E+000
 0.100000000000000E-011
 0.121655174254294E-001
 0.100000000000000E-011
 0.100000000000000E-011
 0.100000000000000E-011
 0.100000000000000E-011
 0.100000000000000E-011
 0.100000000000000E-011
 0.100000000000000E-011
 0.100000000000000E-011
 0.100000000000000E-011
 0.100000000000000E-011
 0.100000000000000E-011
 0.100000000000000E-011
 0.100000000000000E-011
 0.100000000000000E-011
 0.100000000000000E-011
 0.100000000000000E-011
 0.100000000000000E-011
 0.100000000000000E-011
 0.100000000000000E-011
 0.100000000000000E-011
 0.100000000000000E-011
 0.100000000000000E-011
 0.100000000000000E-011
 0.100000000000000E-011
 0.262712273094104E+000
 0.100000000000000E-011
 0.405075648185420E-002
 0.201368270427298E-001
 0.100000000000000E-011
 0.100000000000000E-011
 0.100000000000000E-011
 0.100000000000000E-011
 0.167033470290953E-001
 0.160068083015310E-001
 0.100000000000000E-011
 0.552507201217525E-002
 0.100000000000000E-011
 0.472436305572346E-001
 0.157406997219346E-001
 0.323548295628988E-001
 0.584980503718133E+000
 0.295037998884115E+000
 0.419826982634315E-001
 0.447873710553347E+000
 0.116815985422123E+001
 0.587707017805328E+000
 0.210154929948564E+001
 0.571155112229343E+000
 0.100000000000000E-011
 0.100000000000000E-011
 0.100000000000000E-011
 0.100000000000000E-011
 0.100000000000000E-011
 0.695180168304215E-002
 0.916600160947289E+000
 0.238204949983270E-001
 0.234549419900842E+000
 0.553069604594449E-002
 0.127837033917799E-001
 0.100000000000000E-011
 0.100000000000000E-011
 0.100000000000000E-011
 0.100000000000000E-011
 0.100000000000000E-011
 0.100000000000000E-011
 0.100000000000000E-011
 0.100000000000000E-011
 0.100000000000000E-011
 0.100000000000000E-011
 0.100000000000000E-011
 0.100000000000000E-011
 0.100000000000000E-011
 0.100000000000000E-011
 0.100000000000000E-011
 0.100000000000000E-011
 0.100000000000000E-011
 0.100000000000000E-011
 0.100000000000000E-011
 0.100000000000000E-011
 0.100000000000000E-011
 0.100000000000000E-011
 0.100000000000000E-011
 0.100000000000000E-011
 0.100000000000000E-011
 0.100000000000000E-011
 0.100000000000000E-011
 0.100000000000000E-011
 0.100000000000000E-011
 0.100000000000000E-011
 0.100000000000000E-011
 0.100000000000000E-011
 0.100000000000000E-011
 0.100000000000000E-011
 0.100000000000000E-011
 0.100000000000000E-011
 0.100000000000000E-011
 0.100000000000000E-011
 0.100000000000000E-011
 0.100000000000000E-011
 0.100000000000000E-011
 0.100000000000000E-011
 0.100000000000000E-011
 0.100000000000000E-011
 0.100000000000000E-011
 0.951582012521312E-002
 0.611551404227421E-001
 0.102606528952150E+000
 0.225574671623605E-001
 0.100000000000000E-011
 0.833358967071787E-002
 0.249395396595205E-001
 0.698514298690518E-001
 0.147294747473966E-001
 0.622348721423876E-001
 0.832751104333224E-002
 0.100000000000000E-011
 0.100000000000000E-011
 0.453050817432820E-001
 0.131608191796203E-001
 0.398185430700596E-001
 0.153450642540164E-002
 0.249109146873478E-002
 0.171399583085635E-001
 0.865649206832703E-002
 0.193957711214888E-001
 0.293188550557263E-002
 0.200212667387235E-002
 0.118787162907473E-001
 0.763110672398336E+000
 0.130151176242183E+001
 0.734026432442199E-002
 0.771601979147481E+000
 0.470334484613684E-002
 0.650827787753911E-002
 0.563584575717292E-002
 0.100000000000000E-011
 0.259927774715007E-001
 0.343677387590826E+000
 0.486027361380822E-001
 0.105971444692386E+000
 0.285396568983563E+000
 0.283485525209686E-001
 0.100000000000000E-011
 0.733656238903912E-001
 0.175219054168034E-001
 0.174343966038288E-001
 0.537542796098155E-001
 0.100000000000000E-011
 0.150585453962506E-001
 0.149930627036266E-001
 0.353160924142396E-001
 0.100000000000000E-011
 0.194614546918574E-001
 0.100000000000000E-011
 0.679807292356976E-002
 0.431902769905575E-002
 0.872448171900486E-001
 0.931159302885415E+000
 0.742097762968704E+000
 0.115307067474121E+001
 0.100000000000000E-011
 0.209838655168624E-001
 0.876685961689080E-001
 0.627862823504428E-001
 0.287612991756900E+001
 0.751142986949328E+000
 0.261450797188769E+001
 0.258909525271171E+001
 0.190026908912656E+000
 0.404309683112586E-001
 0.495680292602400E-002
 0.777656675448311E-002
 0.533247910675359E-001
 0.909442538759561E+000
 0.395001185486953E-001
 0.435817531306691E-001
 0.818594522980780E-002
 0.615750903084170E-002
 0.941506102162150E-001
 0.100000000000000E-011
 0.110057854501213E-001
 0.209527089248471E-001
 0.486925420938155E-002
 0.100000000000000E-011
 0.279200859030829E-001
 0.704047263107601E-002
 0.949377345321771E-002
 0.100000000000000E-011
 0.169933483669001E+000
 0.114857955153480E-001
 0.220083187479442E+000
 0.214670786751584E+000
 0.771424280329983E+000
 0.427362185613970E-002
 0.103596488424752E+001
 0.120960635689269E+001
 0.837882967338220E-002
 0.810371952563145E-001
 0.420272030265077E+000
 0.725155079564717E-001
 0.147478550985792E-001
 0.189940825191211E+001
 0.687394837500899E-002
 0.100000000000000E-011
 0.201671870013447E+001
 0.100000000000000E-011
 0.460920120795611E+001
 0.372060068531044E+001
 0.632554954889449E-002
 0.100000000000000E-011
 0.488274316310381E-001
 0.380710485696774E-001
 0.100000000000000E-011
 0.823767904982243E-001
 0.705350478088402E-001
 0.401571578163024E-001
 0.920514466060503E-002
 0.100000000000000E-011
 0.105392563737278E+000
 0.102111774596917E-001
 0.101154394039386E-001
 0.496178023117448E+001
 0.168595474808794E+000
 0.221279375593675E+000
 0.300176133752940E-001
 0.402358114539271E-001