# vtk DataFile Version 3.0
Unstructured Grid
ASCII
DATASET UNSTRUCTURED_GRID
FIELD FieldData 1
TIME 1 1 float
  0.603567E+00
POINTS         2102 double
 0.000000000000000E+000 0.000000000000000E+000 0.000000000000000E+000
 0.100000000000000E+001 0.000000000000000E+000 0.000000000000000E+000
 0.100000000000000E+001 0.100000000000000E+001 0.000000000000000E+000
 0.000000000000000E+000 0.100000000000000E+001 0.000000000000000E+000
 0.125000000000000E+000 0.250000000000000E+000 0.000000000000000E+000
 0.375000000000000E+000 0.250000000000000E+000 0.000000000000000E+000
 0.375000000000000E+000 0.750000000000000E+000 0.000000000000000E+000
 0.125000000000000E+000 0.750000000000000E+000 0.000000000000000E+000
 0.625000000000000E+000 0.250000000000000E+000 0.000000000000000E+000
 0.875000000000000E+000 0.250000000000000E+000 0.000000000000000E+000
 0.875000000000000E+000 0.750000000000000E+000 0.000000000000000E+000
 0.625000000000000E+000 0.750000000000000E+000 0.000000000000000E+000
 0.100000000000000E+001 0.500000000000000E+000 0.000000000000000E+000
 0.000000000000000E+000 0.500000000000000E+000 0.000000000000000E+000
 0.500000000000000E+000 0.000000000000000E+000 0.000000000000000E+000
 0.125000000000000E+000 0.500000000000000E+000 0.000000000000000E+000
 0.000000000000000E+000 0.750000000000000E+000 0.000000000000000E+000
 0.000000000000000E+000 0.250000000000000E+000 0.000000000000000E+000
 0.000000000000000E+000 0.875000000000000E+000 0.000000000000000E+000
 0.000000000000000E+000 0.125000000000000E+000 0.000000000000000E+000
 0.000000000000000E+000 0.812500000000000E+000 0.000000000000000E+000
 0.625000000000000E-001 0.812500000000000E+000 0.000000000000000E+000
 0.125000000000000E+000 0.375000000000000E+000 0.000000000000000E+000
 0.000000000000000E+000 0.375000000000000E+000 0.000000000000000E+000
 0.125000000000000E+000 0.625000000000000E+000 0.000000000000000E+000
 0.312500000000000E-001 0.781250000000000E+000 0.000000000000000E+000
 0.000000000000000E+000 0.625000000000000E+000 0.000000000000000E+000
 0.781250000000000E-001 0.765625000000000E+000 0.000000000000000E+000
 0.312500000000000E-001 0.843750000000000E+000 0.000000000000000E+000
 0.500000000000000E+000 0.100000000000000E+001 0.000000000000000E+000
 0.852352799227800E-001 0.850726351351351E+000 0.000000000000000E+000
 0.531250000000000E-001 0.896875000000000E+000 0.000000000000000E+000
 0.128125000000000E+000 0.862500000000000E+000 0.000000000000000E+000
 0.125000000000000E+000 0.100000000000000E+001 0.000000000000000E+000
 0.250000000000000E+000 0.750000000000000E+000 0.000000000000000E+000
 0.000000000000000E+000 0.937500000000000E+000 0.000000000000000E+000
 0.250000000000000E+000 0.100000000000000E+001 0.000000000000000E+000
 0.117915518486872E+000 0.805415518486872E+000 0.000000000000000E+000
 0.201656717908302E+000 0.819893736067327E+000 0.000000000000000E+000
 0.181985294117647E-001 0.906250000000000E+000 0.000000000000000E+000
 0.157158578892515E+000 0.827852167423944E+000 0.000000000000000E+000
 0.187500000000000E+000 0.750000000000000E+000 0.000000000000000E+000
 0.190370748034901E+000 0.885171153579592E+000 0.000000000000000E+000
 0.173219498992632E+000 0.789273026175030E+000 0.000000000000000E+000
 0.125000000000000E+000 0.687500000000000E+000 0.000000000000000E+000
 0.000000000000000E+000 0.687500000000000E+000 0.000000000000000E+000
 0.441080729166667E-001 0.732584635416667E+000 0.000000000000000E+000
 0.625000000000000E-001 0.100000000000000E+001 0.000000000000000E+000
 0.324539302647226E+000 0.874753539998500E+000 0.000000000000000E+000
 0.138239725210285E+000 0.931515391482052E+000 0.000000000000000E+000
 0.218750000000000E+000 0.780050991479902E+000 0.000000000000000E+000
 0.282595248614805E+000 0.815169690490412E+000 0.000000000000000E+000
 0.241894668607517E+000 0.813568527927710E+000 0.000000000000000E+000
 0.259830219207979E+000 0.875750318441249E+000 0.000000000000000E+000
 0.375000000000000E+000 0.687500000000000E+000 0.000000000000000E+000
 0.894072114981556E-001 0.718750000000000E+000 0.000000000000000E+000
 0.156250000000000E+000 0.718750000000000E+000 0.000000000000000E+000
 0.171875000000000E+000 0.671875000000000E+000 0.000000000000000E+000
 0.208984375000000E+000 0.705078125000000E+000 0.000000000000000E+000
 0.187500000000000E+000 0.100000000000000E+001 0.000000000000000E+000
 0.100742481264918E+000 0.901762004578004E+000 0.000000000000000E+000
 0.897955050140944E-001 0.954063112745616E+000 0.000000000000000E+000
 0.454072994832874E-001 0.943019090840959E+000 0.000000000000000E+000
 0.312500000000000E-001 0.978320013898389E+000 0.000000000000000E+000
 0.151802024837252E+000 0.894278844061106E+000 0.000000000000000E+000
 0.312500000000000E+000 0.750000000000000E+000 0.000000000000000E+000
 0.349824395642442E+000 0.812398913150492E+000 0.000000000000000E+000
 0.291845278223558E+000 0.853213315943310E+000 0.000000000000000E+000
 0.312500000000000E+000 0.100000000000000E+001 0.000000000000000E+000
 0.221920040905101E+000 0.857011448773234E+000 0.000000000000000E+000
 0.610875609743251E-001 0.656250000000000E+000 0.000000000000000E+000
 0.575501251937821E-001 0.695518883967223E+000 0.000000000000000E+000
 0.229414059980049E+000 0.912264575939035E+000 0.000000000000000E+000
 0.267409472953924E+000 0.912989160289387E+000 0.000000000000000E+000
 0.247617500704634E+000 0.954276202159214E+000 0.000000000000000E+000
 0.186156415773925E+000 0.932922904662876E+000 0.000000000000000E+000
 0.161177138586098E+000 0.966975254724362E+000 0.000000000000000E+000
 0.281250000000000E+000 0.775106270475024E+000 0.000000000000000E+000
 0.232477697233870E+000 0.641481728091557E+000 0.000000000000000E+000
 0.375000000000000E+000 0.500000000000000E+000 0.000000000000000E+000
 0.343750000000000E+000 0.773669964712841E+000 0.000000000000000E+000
 0.500000000000000E+000 0.836710937419870E+000 0.000000000000000E+000
 0.625000000000000E-001 0.460493798860530E+000 0.000000000000000E+000
 0.225506433867106E-001 0.656250000000000E+000 0.000000000000000E+000
 0.625000000000000E-001 0.578156919744020E+000 0.000000000000000E+000
 0.100683627400278E+000 0.656250000000000E+000 0.000000000000000E+000
 0.808855941873017E-001 0.617548766045778E+000 0.000000000000000E+000
 0.396623706279028E-001 0.612802597169787E+000 0.000000000000000E+000
 0.000000000000000E+000 0.562500000000000E+000 0.000000000000000E+000
 0.209099082089092E+000 0.966015356758449E+000 0.000000000000000E+000
 0.208176344887401E+000 0.668642063067022E+000 0.000000000000000E+000
 0.375000000000000E+000 0.625000000000000E+000 0.000000000000000E+000
 0.281250000000000E+000 0.727693574222975E+000 0.000000000000000E+000
 0.410395729589754E-001 0.531250000000000E+000 0.000000000000000E+000
 0.243044505147503E+000 0.715165207256627E+000 0.000000000000000E+000
 0.427668699245901E+000 0.807527989856971E+000 0.000000000000000E+000
 0.375000000000000E+000 0.100000000000000E+001 0.000000000000000E+000
 0.396556497766215E+000 0.872516538744482E+000 0.000000000000000E+000
 0.125000000000000E+000 0.562500000000000E+000 0.000000000000000E+000
 0.386020873411304E-001 0.491878123024719E+000 0.000000000000000E+000
 0.837862679783012E-001 0.496009823563561E+000 0.000000000000000E+000
 0.181474703505393E+000 0.615400296494607E+000 0.000000000000000E+000
 0.156642498481761E+000 0.640232501518239E+000 0.000000000000000E+000
 0.148741293073547E+000 0.593750000000000E+000 0.000000000000000E+000
 0.198570897886273E+000 0.531250000000000E+000 0.000000000000000E+000
 0.186280074550956E+000 0.572564766212389E+000 0.000000000000000E+000
 0.261115628859886E+000 0.572342169151976E+000 0.000000000000000E+000
 0.223664380580028E+000 0.561200712513239E+000 0.000000000000000E+000
 0.260913847788851E+000 0.504504802962447E+000 0.000000000000000E+000
 0.220403809070327E+000 0.602182935170118E+000 0.000000000000000E+000
 0.280942357260745E+000 0.670965807217831E+000 0.000000000000000E+000
 0.303530083216233E+000 0.699208028468857E+000 0.000000000000000E+000
 0.244300952472090E+000 0.677895460994186E+000 0.000000000000000E+000
 0.278676255979588E+000 0.620116626474426E+000 0.000000000000000E+000
 0.375000000000000E+000 0.562500000000000E+000 0.000000000000000E+000
 0.294783395930685E+000 0.587081428049465E+000 0.000000000000000E+000
 0.296390010773290E+000 0.538188197482711E+000 0.000000000000000E+000
 0.326808615275446E+000 0.623140446700340E+000 0.000000000000000E+000
 0.375000000000000E+000 0.375000000000000E+000 0.000000000000000E+000
 0.341600259444201E+000 0.531250000000000E+000 0.000000000000000E+000
 0.337040360926244E+000 0.581802448479955E+000 0.000000000000000E+000
 0.313454820588085E+000 0.656240056545723E+000 0.000000000000000E+000
 0.244117968371280E+000 0.386059455330322E+000 0.000000000000000E+000
 0.316730626055850E+000 0.471195859600445E+000 0.000000000000000E+000
 0.343361747898823E+000 0.718361747898823E+000 0.000000000000000E+000
 0.387582141166944E+000 0.791354577928815E+000 0.000000000000000E+000
 0.394629419637968E+000 0.831652479273046E+000 0.000000000000000E+000
 0.359139968398398E+000 0.852480346691833E+000 0.000000000000000E+000
 0.449407668689709E+000 0.857876667231944E+000 0.000000000000000E+000
 0.504433083654504E+000 0.918355468709935E+000 0.000000000000000E+000
 0.438910290808154E+000 0.922698775777408E+000 0.000000000000000E+000
 0.487684842153978E+000 0.878322236197629E+000 0.000000000000000E+000
 0.750000000000000E+000 0.100000000000000E+001 0.000000000000000E+000
 0.429264219376497E+000 0.887875644335434E+000 0.000000000000000E+000
 0.297282757956014E+000 0.952697072250340E+000 0.000000000000000E+000
 0.308758340495749E+000 0.912972519020668E+000 0.000000000000000E+000
 0.353713070703707E+000 0.947478792032462E+000 0.000000000000000E+000
 0.343750000000000E+000 0.982091257636542E+000 0.000000000000000E+000
 0.437500000000000E+000 0.100000000000000E+001 0.000000000000000E+000
 0.386196294810884E+000 0.916319687483247E+000 0.000000000000000E+000
[...]
CELL_DATA         4076
SCALARS tdens double 1
LOOKUP_TABLE default
 0.661289406427482E-002
 0.763115202224498E-002
 0.876295974119571E-002
 0.774511535635155E-002
 0.546967805289745E-001
 0.498106585375670E-001
 0.484903031790991E-001
 0.512976586036193E-001
 0.811324776591656E-001
 0.887149077336468E-001
 0.969014651212766E-001
 0.886135693504606E-001
 0.728327290437812E-002
 0.954554017186613E-002
 0.906612895975707E-002
 0.832785303014895E-002
 0.108880770011418E-001
 0.131954015786368E-001
 0.129721833175282E-001
 0.121135078719757E-001
 0.129832724352023E-001
 0.146725290273430E-001
 0.142612802450999E-001
 0.137930867841979E-001
 0.580394307669479E-001
 0.500234255872193E-001
 0.527646252267708E-001
 0.550768693672096E-001
 0.557256385253270E-001
 0.634118524960693E-001
 0.610312188248224E-001
 0.595237706331877E-001
 0.655600429734261E-001
 0.614595040244787E-001
 0.643581379626574E-001
 0.634788696723095E-001
 0.973775577295333E-002
 0.104297519892488E-001
 0.102945279906156E-001
 0.102020386609699E-001
 0.294253432033986E-001
 0.288655720525495E-001
 0.273703419358048E-001
 0.286315147452455E-001
 0.108746680408829E+000
 0.100079625098307E+000
 0.967743744204750E-001
 0.103429556921997E+000
 0.612057226408433E-002
 0.685558591516950E-002
 0.822489620176649E-002
 0.687775159718179E-002
 0.716429150224361E-001
 0.776201864025517E-001
 0.763809338484506E-001
 0.760673718012662E-001
 0.409165761736917E-001
 0.388587103765640E-001
 0.392133776592830E-001
 0.398522474783626E-001
 0.386953242058701E-001
 0.343094443803756E-001
 0.323631609519166E-001
 0.351835490088070E-001
 0.114349405537039E-001
 0.124377912955053E-001
 0.141242985014211E-001
 0.128712237552033E-001
 0.185780412496755E-001
 0.176729270122357E-001
 0.151447210201551E-001
 0.166236923120568E-001
 0.486319120829068E-002
 0.458374216618876E-002
 0.774225954974830E-002
 0.585418986275278E-002
 0.855035277755442E-001
 0.902957335547494E-001
 0.790157598935670E-001
 0.851899362482527E-001
 0.450072188046899E-001
 0.345195277545314E-001
 0.441464839723980E-001
 0.414841528378509E-001
 0.101917437766585E-001
 0.110214351790656E-001
 0.108628942300776E-001
 0.107373032241878E-001
 0.421108616023565E-001
 0.329604181496293E-001
 0.394756413407555E-001
 0.383986712708442E-001
 0.108954134949057E-001
 0.100250418220992E-001
 0.109196646198912E-001
 0.103447795809499E-001
 0.315699559154399E-001
 0.415039132946261E-001
 0.318957659419321E-001
 0.339659332887045E-001
 0.325067869410926E-001
 0.282674114623756E-001
 0.271932957726998E-001
 0.294668197795787E-001
 0.117579166250847E-001
 0.143360556391187E-001
 0.114343584838611E-001
 0.127072963572571E-001
 0.527789867961416E-001
 0.642710712414893E-001
 0.548112011870553E-001
 0.586578398030952E-001
 0.136554023958309E-001
 0.146710377019010E-001
 0.127774454277395E-001
 0.135325830145200E-001
 0.212236023262252E-001
 0.168061991855400E-001
 0.177243637971670E-001
 0.184150010920270E-001
 0.133820318489319E-001
 0.159399074968754E-001
 0.152038403482957E-001
 0.145171298505455E-001
 0.163068792399074E-001
 0.143605694804400E-001
 0.139221393266832E-001
 0.151086604468206E-001
 0.192709094902818E-001
 0.217267148845119E-001
 0.172201616063341E-001
 0.190271903381677E-001
 0.148283619141163E-001
 0.167476148036609E-001
 0.182708352359501E-001
 0.166524691891050E-001
 0.874508878428096E-002
 0.786558760595966E-002
 0.569831607266194E-002
 0.733452129586581E-002
 0.767237306208080E-001
 0.765494681341529E-001
 0.799317336724243E-001
 0.778237642655029E-001
 0.191849946172210E-001
 0.163690725295236E-001
 0.214827696240314E-001
 0.185270485816459E-001
 0.823361425508131E-002
 0.720081097958392E-002
 0.887344806795938E-002
 0.809596411903087E-002
 0.142432810947684E-001
 0.129319774387206E-001
 0.147759930107847E-001
 0.137850010369646E-001
 0.118253792977749E-001
 0.113762711439473E-001
 0.112591876768401E-001
 0.114507170100614E-001
 0.117183726976693E-001
 0.115280318447882E-001
 0.131525660177089E-001
 0.121144440003283E-001
 0.175721805912885E-001
 0.159354925879966E-001
 0.208434815044842E-001
 0.177695399172339E-001
 0.935391440945614E-002
 0.101762339107875E-001
 0.888673348054973E-002
 0.966623059747722E-002
 0.277831511515807E-002
 0.178639351488599E-002
 0.231728656650667E-002
 0.237413071101932E-002
 0.401511300351657E-001
 0.425401637905767E-001
 0.422421432601635E-001
 0.413577700277199E-001
 0.376107151288591E-002
 0.505203849671593E-002
 0.586955720956024E-002
 0.475237885256185E-002
 0.561723802504209E-001
 0.612655403527004E-001
 0.487556536240335E-001
 0.543966610381207E-001
 0.270317977529484E-001
 0.198769121787474E-001
 0.247280598486558E-001
 0.235958778981309E-001
 0.125715614076949E-001
 0.142714433328894E-001
 0.154349403384165E-001
 0.139395518043035E-001
 0.950089810440380E-002
 0.845400019472196E-002
 0.724126435058600E-002
 0.819175744083396E-002
 0.952344735487537E-002
 0.105212287266211E-001
 0.118589652520884E-001
 0.107286069841838E-001
 0.772197637277727E-002
 0.649998815632241E-002
 0.655144952644281E-002
 0.671214939166460E-002
 0.296760840724830E-001
 0.270104417113737E-001
 0.359268524469682E-001
 0.303042840934358E-001
 0.708591647258828E-002
 0.817732634739042E-002
 0.919275976267632E-002
 0.831736572642655E-002
 0.567016199413307E-002
 0.495379747799268E-002
 0.573153336337168E-002
 0.559087820321036E-002
 0.306223483928710E-001
 0.402399146974160E-001
 0.315103794337774E-001
 0.349059154385204E-001
 0.151502048735700E-001
 0.170177441944029E-001
 0.138817263229624E-001
 0.152547634654411E-001
 0.923065664168419E-002
 0.107805850037994E-001
 0.103542339436414E-001
 0.983860162187653E-002
 0.134018827215098E-001
 0.119565983089709E-001
 0.151677043767560E-001
 0.132557656676351E-001
 0.736436469642428E-002
 0.575486416415079E-002
 0.614244068791183E-002
 0.654359545682860E-002
 0.362945648123204E-002
 0.538320422909758E-002
 0.456666571635928E-002
 0.448735696433004E-002
 0.229184617257849E-001
 0.278389885864438E-001
 0.274117781791943E-001
 0.255625741985720E-001
 0.194990037228532E-001
 0.207057748081185E-001
 0.245728522178057E-001
 0.219248856327472E-001
 0.488385325268801E-001
 0.566143946341557E-001
 0.460187641613778E-001
 0.511529812074909E-001
 0.314355499672408E-001
 0.317057543288460E-001
 0.411446828751997E-001
 0.336920048164580E-001
 0.363694879601394E-001
 0.319929323087400E-001
 0.389338764985460E-001
 0.353182462372698E-001
 0.110780328979274E-001
 0.127928022829355E-001
 0.132486270210170E-001
 0.121779399264402E-001
 0.190706190481721E-001
 0.251642791084895E-001
 0.207037461858901E-001
 0.218615649995472E-001
 0.412664450801185E-001
 0.344605707729708E-001
 0.433220990307063E-001
 0.390110710436833E-001
 0.782538894739784E-002
 0.875968413611138E-002
 0.942354986851182E-002
 0.868046900696368E-002
 0.131820307544997E-001
 0.117468050235063E-001
 0.123011671160710E-001
 0.124492489753667E-001
 0.114828243315928E-001
 0.112069632067370E-001
 0.106792687204607E-001
 0.111763966332651E-001
 0.139577231335439E-001
 0.124414458474819E-001
 0.123804501742758E-001
 0.130618912139291E-001
 0.416389262058376E-002
 0.550713078919944E-002
 0.503990095583211E-002
 0.472016863477040E-002
 0.311557339684086E-002
 0.411116364223351E-002
 0.343594783558775E-002
 0.333310618662953E-002
 0.373190377856415E-001
 0.375679460643338E-001
 0.454124065550838E-001
 0.403145791539982E-001
 0.293879127850729E-001
 0.264928824404071E-001
 0.284525018963967E-001
 0.280091065652312E-001
 0.150275348640954E-001
 0.179129609067235E-001
 0.154005974329128E-001
 0.163937943251911E-001
 0.172805873072992E-001
 0.140049655703300E-001
 0.140930572759783E-001
 0.154223338535868E-001
 0.506889259375760E-001
 0.405199858535131E-001
 0.436942443921563E-001
 0.450434238909698E-001
 0.313385099002874E-001
 0.374524205482086E-001
 0.305278474278579E-001
 0.334177288930847E-001
 0.712022814270169E-001
 0.761756602939321E-001
 0.810280057440038E-001
 0.760733047659476E-001
 0.372522393549192E-001
 0.402041585628820E-001
 0.363980281000333E-001
 0.382199939124731E-001
 0.557955411827773E-001
 0.485009502635736E-001
 0.585869852894484E-001
 0.535250732808081E-001
 0.343249102915282E-001
 0.303052919516773E-001
 0.348076269728255E-001
 0.324809653727661E-001
 0.292258958944203E-001
 0.287449608059638E-001
 0.323329264826665E-001
 0.305380163647368E-001
 0.259814877716549E-001
 0.246199697968836E-001
 0.208422873582405E-001
 0.230412382415166E-001
 0.265746948129028E+000
 0.243510060092097E+000
 0.281051988886183E+000
 0.274351990738610E+000
 0.768371353837665E-001
 0.790130951844051E-001
 0.847040379799529E-001
 0.802077807405414E-001
 0.155183277007222E-001
 0.162192182148149E-001
 0.196970019750642E-001
 0.172653790645274E-001
 0.993878860568820E-002
 0.942878079381582E-002
 0.108436544524266E-001
 0.102013787286648E-001
 0.421093533483106E-001
 0.409007966653631E-001
 0.304379909350935E-001
 0.362623253972911E-001
 0.244551301484140E-001
 0.201948009756388E-001
 0.258822235442088E-001
 0.232646394801781E-001
 0.135266938461200E-001
 0.141605831576410E-001
 0.163690663980741E-001
 0.141614417857108E-001
 0.245337795742585E-001
 0.187405413598989E-001
 0.219476073822179E-001
 0.220814758170977E-001
 0.854108945643331E-001
 0.786018384002052E-001
 0.863579966303007E-001
 0.842578350706459E-001
 0.474979266537327E-001
 0.445070885187582E-001
 0.506965262287197E-001
 0.455748500232427E-001
 0.104818664002329E-001
 0.126698375346288E-001
 0.108111489347264E-001
 0.113506030462657E-001
 0.125219899812834E-001
 0.100871100955047E-001
 0.125722928721225E-001
 0.114184508999053E-001
 0.662054753600771E-002
 0.822891298042254E-002
 0.890157782388959E-002
 0.761500114293434E-002
 0.672917653811712E-002
 0.601212180064382E-002
 0.817373670152102E-002
 0.723009068680222E-002
 0.185745218912344E-002
 0.278857650104017E-002
 0.235384817725093E-002
 0.239333950709974E-002
 0.529917955555697E-002
 0.392504380387983E-002
 0.451206743644659E-002
 0.468766723615674E-002
 0.309970121471071E-002
 0.342375728918650E-002
 0.445334297583385E-002
 0.355586575660017E-002
 0.197592053653820E-002
 0.608745764558715E-003
 0.142243798090227E-002
 0.121130345759673E-002
 0.186432624403884E-002
 0.133358412806801E-002
 0.560551635507872E-003
 0.107596025600882E-002
 0.189048915027028E-001
 0.158097365961088E-001
 0.177974901696378E-001
 0.171344521004225E-001
 0.930074783363055E-002
 0.116340399493599E-001
 0.998740702803406E-002
 0.104950801767712E-001
 0.711769426193895E-001
 0.667213534710468E-001
 0.616919650796453E-001
 0.662744061801879E-001
 0.286657938691010E-001
 0.353872658959396E-001
 0.376887135301430E-001
 0.331793688925127E-001
 0.577234133863857E-001
 0.623129208726281E-001
 0.593368522884988E-001
 0.599617523496310E-001
 0.236471578082356E-001
 0.239371581266240E-001
 0.207124801045834E-001
 0.227771420364250E-001
 0.478100134796122E-001
 0.391573419263017E-001
 0.432359332793718E-001
 0.428375741456855E-001
 0.251467826499445E-001
 0.273814974346517E-001
 0.253130010112969E-001
 0.259308314864095E-001
 0.123244896754601E-002
 0.174203565160446E-002
 0.483603631189423E-003
 0.116798638394778E-002
 0.206982396398765E-002
 0.353194498162183E-002
 0.253568689894599E-002
 0.250504745595932E-002
 0.329954127646664E-001
 0.271854933700481E-001
 0.289667525594981E-001
 0.299078111277807E-001
 0.221670772805075E-001
 0.248812639842251E-001
 0.260605842620925E-001
 0.239521968514707E-001
 0.609880699327010E-002
 0.418800450067120E-002
 0.607511682574410E-002
 0.546380939502107E-002
 0.168998346287295E-001
 0.143131270456237E-001
 0.146029826304613E-001
 0.153701124113837E-001
 0.106083864697959E-001
 0.116048112969017E-001
 0.117750096295079E-001
 0.111490504304523E-001
 0.119260078763273E-001
 0.110966156894392E-001
 0.125823428140263E-001
 0.118721730502829E-001
 0.228131944645749E-001
 0.203132736358167E-001
 0.193134536599339E-001
 0.210918575799888E-001
 0.240890052265275E-001
 0.219494031715811E-001
 0.256332864229231E-001
 0.239089287984889E-001
 0.343947468578491E-001
 0.309710668735739E-001
 0.342467471037825E-001
 0.324973310117692E-001
 0.228827272102489E-001
 0.197292105466759E-001
 0.202330707251208E-001
 0.208121306635366E-001
 0.206147354906183E-001
 0.227627493180893E-001
 0.202484928194919E-001
 0.211779328485449E-001
 0.165807448882790E-001
 0.190841437206538E-001
 0.188559514368130E-001
 0.178602687038003E-001
 0.136357287580521E-001
 0.141237271871509E-001
 0.117871246467154E-001
 0.130758430292491E-001
 0.110289890286684E-001
 0.829059010261259E-002
 0.100797614438997E-001
 0.975799391591585E-002
 0.801267781431079E-002
 0.945890552449289E-002
 0.984172916744052E-002
 0.853220100603253E-002
 0.405374285729282E-001
 0.501603864925312E-001
 0.435128079818108E-001
 0.449334279924995E-001
 0.637488411985559E-001
 0.700696759605522E-001
 0.605001179863428E-001
 0.653280703405774E-001
 0.657766831229559E-001
 0.675125128650814E-001
 0.722148001666722E-001
 0.684650846812394E-001
 0.740913327695451E-001
 0.703926946272771E-001
 0.581589750477529E-001
 0.659903092181529E-001
 0.208732025264071E-001
 0.215347387800754E-001
 0.173226653295831E-001
 0.193619376128910E-001
 0.418520851392414E-001
 0.361411307782040E-001
 0.287721803084260E-001
 0.354890510675557E-001
 0.653071537792131E-001
 0.684834395694433E-001
 0.766449032753103E-001
 0.703678801528753E-001
 0.590201169099274E-001
 0.521858011849621E-001
 0.476828269307234E-001
 0.536265804361550E-001
 0.310899489408976E-001
 0.327722835772568E-001
 0.311123272129677E-001
 0.314342892649087E-001
 0.101453284230141E-001
 0.107523864123819E-001
 0.124235714650532E-001
 0.112393017539466E-001
 0.514455380129157E-001
 0.527716652159339E-001
 0.574829020980367E-001
 0.541730818980457E-001
 0.238505970677116E-001
 0.211622558028752E-001
 0.235297902737862E-001
 0.227586781600428E-001
 0.827266253152788E-002
 0.720078101653676E-002
 0.722536444753788E-002
 0.739940141222050E-002
 0.112651084426939E-001
 0.960281282945387E-002
 0.104322044082754E-001
 0.102816567003023E-001
 0.803851978810532E-003
 0.204419718520541E-002
 0.227084681150064E-002
 0.154182598823310E-002
 0.459315784446853E-002
 0.302658260281556E-002
 0.288659335163734E-002
 0.364261185227530E-002
 0.146403331903833E-001
 0.172402388167373E-001
 0.156950401251568E-001
 0.160211149898919E-001
 0.101682579360696E-001
 0.120906231034519E-001
 0.105620370451371E-001
 0.110827170784873E-001
 0.940300152069674E-002
 0.867159177353153E-002
 0.773106671427552E-002
 0.872127180894319E-002
 0.123047261918256E-001
 0.206033673094556E-001
 0.196308441874650E-001
 0.167921736198393E-001
 0.657847892819977E-002
 0.831517442932993E-002
 0.698306565956811E-002
 0.743051712827951E-002
 0.791719451151769E-002
 0.921119885914853E-002
 0.970110574883882E-002
 0.875101770913310E-002
 0.179817129270809E-001
 0.161633361229059E-001
 0.183767799157099E-001
 0.177271904496353E-001
 0.608649177104807E-002
 0.403930222981105E-002
 0.555050195827369E-002
 0.489787274624451E-002
 0.114540925551732E-001
 0.137663181908244E-001
 0.124079957556237E-001
 0.125415312103300E-001
 0.127320649135238E+000
 0.127224530821195E+000
 0.165359068684401E+000
 0.139169631850535E+000
 0.238642606809363E-001
 0.313298155458986E-001
 0.244442227883174E-001
 0.275505365818700E-001
 0.132745327339181E+000
 0.126421211272185E+000
 0.145114127963451E+000
 0.135666356606317E+000
 0.752452229841499E-001
 0.742688381366867E-001
 0.699526236055017E-001
 0.722582236297073E-001
 0.582673393837469E-001
 0.644558400917848E-001
 0.621928713636261E-001
 0.606834960134822E-001
 0.887453280190655E-001
 0.805556072029520E-001
 0.777309375097436E-001
 0.809111069230338E-001
 0.106532250527747E+000
 0.966169411641209E-001
 0.891035299332543E-001
 0.967065915332121E-001
 0.352420986420715E-002
 0.299327649611045E-002
 0.465386315593425E-002
 0.357411415354277E-002
 0.480108515474785E-001
 0.421794059104683E-001
 0.401169038344027E-001
 0.427005119049377E-001
 0.507771425872479E-001
 0.442824271435010E-001
 0.502906328717609E-001
 0.488704430256756E-001
 0.435540966125309E-001
 0.474315428981249E-001
 0.458841893242882E-001
 0.454856387844039E-001
 0.466218992235783E-001
 0.425184352896922E-001
 0.386930149028855E-001
 0.424721492224806E-001
 0.417938962686472E-001
 0.422856328896824E-001
 0.444065732187040E-001
 0.428284954274508E-001
 0.280361215958001E-001
 0.263731593594040E-001
 0.292029159464662E-001
 0.279367282698576E-001
 0.548112650463197E-001
 0.543575175187757E-001
 0.491731275792608E-001
 0.522805265980506E-001
 0.548800026309339E-002
 0.505848514257166E-002
 0.357986335982496E-002
 0.461950971727319E-002
 0.405841999817437E-002
 0.479797877347110E-002
 0.311031581363061E-002
 0.409028666586226E-002
 0.168442227971141E-002
 0.118564865113236E-002
 0.410036286335111E-003
 0.819481470028169E-003
 0.226259036083225E-002
 0.338544061971934E-002
 0.372019007658361E-002
 0.305628753687124E-002
 0.652846147709880E-002
 0.889550548614276E-002
 0.653549857663911E-002
 0.726047589000010E-002
 0.802430461157284E-002
 0.912387260098132E-002
 0.670575720055354E-002
 0.821848386262371E-002
 0.118658706242579E-001
 0.181635537144691E-001
 0.150571392845211E-001
 0.145372709760153E-001
 0.149911016390493E-001
 0.765591348410960E-002
 0.737394342651685E-002
 0.761837586975357E-002
 0.176843737937181E-001
 0.163215221354011E-001
 0.201596611792250E-001
 0.171003212529334E-001
 0.100065172993871E-001
 0.127160477502396E-001
 0.118041423383630E-001
 0.110734438877636E-001
 0.116936210846409E-001
 0.987111852978411E-002
 0.899146424452446E-002
 0.966091138429378E-002
 0.507061243982478E-002
 0.779553909840509E-002
 0.692881520763692E-002
 0.584772144950298E-002
 0.475810940627159E-001
 0.633401895198290E-001
 0.578916503698000E-001
 0.562153634428633E-001
 0.439878240918288E-001
 0.302662367978759E-001
 0.411008114324368E-001
 0.368495040709450E-001
 0.698485066520356E-002
 0.142145320737770E-001
 0.865823487759578E-002
 0.100570742080590E-001
 0.267382740235320E-001
 0.299814389019334E-001
 0.383939958183769E-001
 0.326676954961964E-001
 0.691435216362421E-001
 0.551857964876217E-001
 0.694039493027993E-001
 0.636157940519658E-001
 0.118475978744789E+000
 0.141726831914391E+000
 0.136458866652054E+000
 0.130705626602541E+000
 0.436287889483574E-001
 0.349067082918188E-001
 0.433868809028465E-001
 0.395628798751960E-001
 0.698025210473870E-001
 0.736861847788059E-001
 0.543366255505041E-001
 0.644025126905418E-001
 0.747230848358390E-002
 0.608472175319149E-002
 0.997517042764674E-002
 0.710609149481882E-002
 0.116331261455713E+000
 0.119488520116139E+000
 0.114963117138158E+000
 0.117579895871585E+000
 0.254366878443377E-001
 0.352166435314417E-001
 0.246500735981151E-001
 0.296103486484599E-001
 0.619788957000858E-001
 0.474599637041946E-001
 0.490096079477860E-001
 0.541669681836758E-001
 0.580136795494369E-001
 0.666141089699228E-001
 0.648418220858306E-001
 0.630914012984695E-001
 0.518509410393151E-001
 0.491528222732824E-001
 0.672174085605447E-001
 0.576976467152714E-001
 0.107706525587737E+000
 0.933409659686150E-001
 0.865623133048313E-001
 0.943789221012308E-001
 0.677728244105441E-001
 0.711296958642012E-001
 0.740535541280920E-001
 0.725023481579677E-001
 0.470226706372752E-001
 0.495794176647788E-001
 0.409821213386045E-001
 0.459225274084004E-001
 0.653347189947363E-001
 0.566095891872770E-001
 0.563823523817365E-001
 0.571476221814112E-001
 0.908845661847615E-001
 0.822339593565160E-001
 0.787036987032314E-001
 0.840005625924460E-001
 0.885373054201304E-001
 0.982166982312484E-001
 0.106936919590737E+000
 0.985804072402682E-001
 0.829796164327962E-001
 0.990756511646274E-001
 0.960904071418514E-001
 0.914285465934144E-001
 0.154793188947593E+000
 0.172157901146715E+000
 0.148154930126134E+000
 0.159380205855539E+000
 0.935848978004785E-001
 0.779035601035469E-001
 0.780636520585861E-001
 0.843164969515941E-001
 0.128382640330340E+000
 0.117629258990542E+000
 0.108755498817541E+000
 0.117284035921179E+000
 0.101314919875696E+000
 0.783872094852578E-001