# vtk DataFile Version 3.0
Unstructured Grid
ASCII
DATASET UNSTRUCTURED_GRID
FIELD FieldData 1
TIME 1 1 float
  0.144585E+02
POINTS         2102 double
 0.000000000000000E+000 0.000000000000000E+000 0.000000000000000E+000
 0.100000000000000E+001 0.000000000000000E+000 0.000000000000000E+000
 0.100000000000000E+001 0.100000000000000E+001 0.000000000000000E+000
 0.000000000000000E+000 0.100000000000000E+001 0.000000000000000E+000
 0.125000000000000E+000 0.250000000000000E+000 0.000000000000000E+000
 0.375000000000000E+000 0.250000000000000E+000 0.000000000000000E+000
 0.375000000000000E+000 0.750000000000000E+000 0.000000000000000E+000
 0.125000000000000E+000 0.750000000000000E+000 0.000000000000000E+000
 0.625000000000000E+000 0.250000000000000E+000 0.000000000000000E+000
 0.875000000000000E+000 0.250000000000000E+000 0.000000000000000E+000
 0.875000000000000E+000 0.750000000000000E+000 0.000000000000000E+000
 0.625000000000000E+000 0.750000000000000E+000 0.000000000000000E+000
 0.100000000000000E+001 0.500000000000000E+000 0.000000000000000E+000
 0.000000000000000E+000 0.500000000000000E+000 0.000000000000000E+000
 0.500000000000000E+000 0.000000000000000E+000 0.000000000000000E+000
 0.125000000000000E+000 0.500000000000000E+000 0.000000000000000E+000
 0.000000000000000E+000 0.750000000000000E+000 0.000000000000000E+000
 0.000000000000000E+000 0.250000000000000E+000 0.000000000000000E+000
 0.000000000000000E+000 0.875000000000000E+000 0.000000000000000E+000
 0.000000000000000E+000 0.125000000000000E+000 0.000000000000000E+000
 0.000000000000000E+000 0.812500000000000E+000 0.000000000000000E+000
 0.625000000000000E-001 0.812500000000000E+000 0.000000000000000E+000
 0.125000000000000E+000 0.375000000000000E+000 0.000000000000000E+000
 0.000000000000000E+000 0.375000000000000E+000 0.000000000000000E+000
 0.125000000000000E+000 0.625000000000000E+000 0.000000000000000E+000
 0.312500000000000E-001 0.781250000000000E+000 0.000000000000000E+000
 0.000000000000000E+000 0.625000000000000E+000 0.000000000000000E+000
 0.781250000000000E-001 0.765625000000000E+000 0.000000000000000E+000
 0.312500000000000E-001 0.843750000000000E+000 0.000000000000000E+000
 0.500000000000000E+000 0.100000000000000E+001 0.000000000000000E+000
 0.852352799227800E-001 0.850726351351351E+000 0.000000000000000E+000
 0.531250000000000E-001 0.896875000000000E+000 0.000000000000000E+000
 0.128125000000000E+000 0.862500000000000E+000 0.000000000000000E+000
 0.125000000000000E+000 0.100000000000000E+001 0.000000000000000E+000
 0.250000000000000E+000 0.750000000000000E+000 0.000000000000000E+000
 0.000000000000000E+000 0.937500000000000E+000 0.000000000000000E+000
 0.250000000000000E+000 0.100000000000000E+001 0.000000000000000E+000
 0.117915518486872E+000 0.805415518486872E+000 0.000000000000000E+000
 0.201656717908302E+000 0.819893736067327E+000 0.000000000000000E+000
 0.181985294117647E-001 0.906250000000000E+000 0.000000000000000E+000
 0.157158578892515E+000 0.827852167423944E+000 0.000000000000000E+000
 0.187500000000000E+000 0.750000000000000E+000 0.000000000000000E+000
 0.190370748034901E+000 0.885171153579592E+000 0.000000000000000E+000
 0.173219498992632E+000 0.789273026175030E+000 0.000000000000000E+000
 0.125000000000000E+000 0.687500000000000E+000 0.000000000000000E+000
 0.000000000000000E+000 0.687500000000000E+000 0.000000000000000E+000
 0.441080729166667E-001 0.732584635416667E+000 0.000000000000000E+000
 0.625000000000000E-001 0.100000000000000E+001 0.000000000000000E+000
 0.324539302647226E+000 0.874753539998500E+000 0.000000000000000E+000
 0.138239725210285E+000 0.931515391482052E+000 0.000000000000000E+000
 0.218750000000000E+000 0.780050991479902E+000 0.000000000000000E+000
 0.282595248614805E+000 0.815169690490412E+000 0.000000000000000E+000
 0.241894668607517E+000 0.813568527927710E+000 0.000000000000000E+000
 0.259830219207979E+000 0.875750318441249E+000 0.000000000000000E+000
 0.375000000000000E+000 0.687500000000000E+000 0.000000000000000E+000
 0.894072114981556E-001 0.718750000000000E+000 0.000000000000000E+000
 0.156250000000000E+000 0.718750000000000E+000 0.000000000000000E+000
 0.171875000000000E+000 0.671875000000000E+000 0.000000000000000E+000
 0.208984375000000E+000 0.705078125000000E+000 0.000000000000000E+000
 0.187500000000000E+000 0.100000000000000E+001 0.000000000000000E+000
 0.100742481264918E+000 0.901762004578004E+000 0.000000000000000E+000
 0.897955050140944E-001 0.954063112745616E+000 0.000000000000000E+000
 0.454072994832874E-001 0.943019090840959E+000 0.000000000000000E+000
 0.312500000000000E-001 0.978320013898389E+000 0.000000000000000E+000
 0.151802024837252E+000 0.894278844061106E+000 0.000000000000000E+000
 0.312500000000000E+000 0.750000000000000E+000 0.000000000000000E+000
 0.349824395642442E+000 0.812398913150492E+000 0.000000000000000E+000
 0.291845278223558E+000 0.853213315943310E+000 0.000000000000000E+000
 0.312500000000000E+000 0.100000000000000E+001 0.000000000000000E+000
 0.221920040905101E+000 0.857011448773234E+000 0.000000000000000E+000
 0.610875609743251E-001 0.656250000000000E+000 0.000000000000000E+000
 0.575501251937821E-001 0.695518883967223E+000 0.000000000000000E+000
 0.229414059980049E+000 0.912264575939035E+000 0.000000000000000E+000
 0.267409472953924E+000 0.912989160289387E+000 0.000000000000000E+000
 0.247617500704634E+000 0.954276202159214E+000 0.000000000000000E+000
 0.186156415773925E+000 0.932922904662876E+000 0.000000000000000E+000
 0.161177138586098E+000 0.966975254724362E+000 0.000000000000000E+000
 0.281250000000000E+000 0.775106270475024E+000 0.000000000000000E+000
 0.232477697233870E+000 0.641481728091557E+000 0.000000000000000E+000
 0.375000000000000E+000 0.500000000000000E+000 0.000000000000000E+000
 0.343750000000000E+000 0.773669964712841E+000 0.000000000000000E+000
 0.500000000000000E+000 0.836710937419870E+000 0.000000000000000E+000
 0.625000000000000E-001 0.460493798860530E+000 0.000000000000000E+000
 0.225506433867106E-001 0.656250000000000E+000 0.000000000000000E+000
 0.625000000000000E-001 0.578156919744020E+000 0.000000000000000E+000
 0.100683627400278E+000 0.656250000000000E+000 0.000000000000000E+000
 0.808855941873017E-001 0.617548766045778E+000 0.000000000000000E+000
 0.396623706279028E-001 0.612802597169787E+000 0.000000000000000E+000
 0.000000000000000E+000 0.562500000000000E+000 0.000000000000000E+000
 0.209099082089092E+000 0.966015356758449E+000 0.000000000000000E+000
 0.208176344887401E+000 0.668642063067022E+000 0.000000000000000E+000
 0.375000000000000E+000 0.625000000000000E+000 0.000000000000000E+000
 0.281250000000000E+000 0.727693574222975E+000 0.000000000000000E+000
 0.410395729589754E-001 0.531250000000000E+000 0.000000000000000E+000
 0.243044505147503E+000 0.715165207256627E+000 0.000000000000000E+000
 0.427668699245901E+000 0.807527989856971E+000 0.000000000000000E+000
 0.375000000000000E+000 0.100000000000000E+001 0.000000000000000E+000
 0.396556497766215E+000 0.872516538744482E+000 0.000000000000000E+000
 0.125000000000000E+000 0.562500000000000E+000 0.000000000000000E+000
 0.386020873411304E-001 0.491878123024719E+000 0.000000000000000E+000
 0.837862679783012E-001 0.496009823563561E+000 0.000000000000000E+000
 0.181474703505393E+000 0.615400296494607E+000 0.000000000000000E+000
 0.156642498481761E+000 0.640232501518239E+000 0.000000000000000E+000
 0.148741293073547E+000 0.593750000000000E+000 0.000000000000000E+000
 0.198570897886273E+000 0.531250000000000E+000 0.000000000000000E+000
 0.186280074550956E+000 0.572564766212389E+000 0.000000000000000E+000
 0.261115628859886E+000 0.572342169151976E+000 0.000000000000000E+000
 0.223664380580028E+000 0.561200712513239E+000 0.000000000000000E+000
 0.260913847788851E+000 0.504504802962447E+000 0.000000000000000E+000
 0.220403809070327E+000 0.602182935170118E+000 0.000000000000000E+000
 0.280942357260745E+000 0.670965807217831E+000 0.000000000000000E+000
 0.303530083216233E+000 0.699208028468857E+000 0.000000000000000E+000
 0.244300952472090E+000 0.677895460994186E+000 0.000000000000000E+000
 0.278676255979588E+000 0.620116626474426E+000 0.000000000000000E+000
 0.375000000000000E+000 0.562500000000000E+000 0.000000000000000E+000
 0.294783395930685E+000 0.587081428049465E+000 0.000000000000000E+000
 0.296390010773290E+000 0.538188197482711E+000 0.000000000000000E+000
 0.326808615275446E+000 0.623140446700340E+000 0.000000000000000E+000
 0.375000000000000E+000 0.375000000000000E+000 0.000000000000000E+000
 0.341600259444201E+000 0.531250000000000E+000 0.000000000000000E+000
 0.337040360926244E+000 0.581802448479955E+000 0.000000000000000E+000
 0.313454820588085E+000 0.656240056545723E+000 0.000000000000000E+000
 0.244117968371280E+000 0.386059455330322E+000 0.000000000000000E+000
 0.316730626055850E+000 0.471195859600445E+000 0.000000000000000E+000
 0.343361747898823E+000 0.718361747898823E+000 0.000000000000000E+000
 0.387582141166944E+000 0.791354577928815E+000 0.000000000000000E+000
 0.394629419637968E+000 0.831652479273046E+000 0.000000000000000E+000
 0.359139968398398E+000 0.852480346691833E+000 0.000000000000000E+000
 0.449407668689709E+000 0.857876667231944E+000 0.000000000000000E+000
 0.504433083654504E+000 0.918355468709935E+000 0.000000000000000E+000
 0.438910290808154E+000 0.922698775777408E+000 0.000000000000000E+000
 0.487684842153978E+000 0.878322236197629E+000 0.000000000000000E+000
 0.750000000000000E+000 0.100000000000000E+001 0.000000000000000E+000
 0.429264219376497E+000 0.887875644335434E+000 0.000000000000000E+000
 0.297282757956014E+000 0.952697072250340E+000 0.000000000000000E+000
 0.308758340495749E+000 0.912972519020668E+000 0.000000000000000E+000
 0.353713070703707E+000 0.947478792032462E+000 0.000000000000000E+000
 0.343750000000000E+000 0.982091257636542E+000 0.000000000000000E+000
 0.437500000000000E+000 0.100000000000000E+001 0.000000000000000E+000
 0.386196294810884E+000 0.916319687483247E+000 0.000000000000000E+000
[...]
CELL_DATA         4076
SCALARS tdens double 1
LOOKUP_TABLE default
 0.223144909388099E-005
 0.264690307224777E-005
 0.329101110275994E-005
 0.270895757998341E-005
 0.729136870562802E-003
 0.420547716525640E-003
 0.432235079575556E-003
 0.456228726852233E-003
 0.321001548465131E+000
 0.436224287635058E+000
 0.335219572269406E+000
 0.357109736649571E+000
 0.241609442780396E-005
 0.348581194366538E-005
 0.322066069673083E-005
 0.287600988583358E-005
 0.429722154943584E-005
 0.683685051999879E-005
 0.600668671846371E-005
 0.532116700701851E-005
 0.778590460103904E-005
 0.116408927614948E-004
 0.964535467076196E-005
 0.945922398824737E-005
 0.837154107113601E-002
 0.697878677094594E-002
 0.267160186178930E-001
 0.136069870820450E-001
 0.888382160443683E-003
 0.185973369514377E-002
 0.143257711854186E-002
 0.148161740387926E-002
 0.516303775291533E-002
 0.243279255045879E-002
 0.383926906819752E-002
 0.395994587079112E-002
 0.478735870221966E-005
 0.495174746996490E-005
 0.512930217050381E-005
 0.498985184252206E-005
 0.720620784930717E-004
 0.557216965108050E-004
 0.525326250107455E-004
 0.584270308407309E-004
 0.247251422302068E+000
 0.108711233877118E+000
 0.632088542387392E-001
 0.104274727020277E+000
 0.301508259322930E-005
 0.322370012374973E-005
 0.440214889176622E-005
 0.334157756177509E-005
 0.443160313248741E-001
 0.601280939290770E-001
 0.987261613826061E-001
 0.481755938692624E-001
 0.142305693719204E-003
 0.105299845242677E-003
 0.106334622296942E-003
 0.113723922804736E-003
 0.336609367556262E-003
 0.257361474600004E-003
 0.174398994189558E-003
 0.246682351749095E-003
 0.497336045214686E-005
 0.606307224579604E-005
 0.885309821349122E-005
 0.642786712946866E-005
 0.317708471683093E-004
 0.256013353591153E-004
 0.179589943002021E-004
 0.249008128724294E-004
 0.154948698696515E-005
 0.148967810500730E-005
 0.282776903371302E-005
 0.195516946563608E-005
 0.456484264268737E-001
 0.102840389305055E+000
 0.248262095820749E-001
 0.356998279880281E-001
 0.517386014521349E-001
 0.485865565831223E-001
 0.247303914431881E-001
 0.474792307608278E-001
 0.467068493254285E-005
 0.482275279980800E-005
 0.505389903685389E-005
 0.487669916096541E-005
 0.146909504967219E-001
 0.425882328851160E-001
 0.577530976567368E-001
 0.509232455641373E-001
 0.593004214290382E-005
 0.471722231176275E-005
 0.535685679180926E-005
 0.515341488396638E-005
 0.103169286310102E-001
 0.192831824794039E-001
 0.397298146095790E-001
 0.173536741246627E-001
 0.174811616364406E-003
 0.900854074317712E-004
 0.882649677717918E-004
 0.100083588452044E-003
 0.843013909523411E-005
 0.154143865720410E-004
 0.897829078146997E-005
 0.102321760682647E-004
 0.411801091987837E+000
 0.356373538047562E+000
 0.364343377507519E+000
 0.390169664823845E+000
 0.697562547620399E-005
 0.855188928616602E-005
 0.593371504682443E-005
 0.701545056034968E-005
 0.695508734264589E-004
 0.212439713590351E-004
 0.318604629774154E-004
 0.330654009019502E-004
 0.106759114661216E-004
 0.200509894591043E-004
 0.149531054589994E-004
 0.144662174670458E-004
 0.213706785485460E-004
 0.146774222912709E-004
 0.151382316026895E-004
 0.165535722769998E-004
 0.281044548964696E-004
 0.611381675490081E-004
 0.148323376357635E-004
 0.249327464577682E-004
 0.182920958590246E-004
 0.261803726853095E-004
 0.338127239796369E-004
 0.251364434677547E-004
 0.466646769764806E-005
 0.410838875662652E-005
 0.184509650346461E-005
 0.263168814608020E-005
 0.116408772020364E+000
 0.132222660456703E+000
 0.139565061019832E+000
 0.142042516382894E+000
 0.263861337836691E-004
 0.134369328705786E-004
 0.548959395066390E-004
 0.209655874853627E-004
 0.384995853562454E-005
 0.315098439196222E-005
 0.409117472802084E-005
 0.368966573128097E-005
 0.939336478297705E-005
 0.656133278824660E-005
 0.929336508764401E-005
 0.817855739075605E-005
 0.529975734539236E-005
 0.532262035906592E-005
 0.481253562259810E-005
 0.507642055731512E-005
 0.712697183052245E-005
 0.606981649107417E-005
 0.851280983350587E-005
 0.706997355450382E-005
 0.269158521117634E-004
 0.156062283295007E-004
 0.527121116034125E-004
 0.260808293566065E-004
 0.441779599241121E-005
 0.556830773714921E-005
 0.441153651680683E-005
 0.481452552164020E-005
 0.108893193389654E-005
 0.627328035758543E-006
 0.802465687871679E-006
 0.859118588106095E-006
 0.112984209745691E-003
 0.153304977279378E-003
 0.155739135466014E-003
 0.143334128301141E-003
 0.140726513338406E-005
 0.224821709743093E-005
 0.255101501184922E-005
 0.197700004755251E-005
 0.147835333256641E-002
 0.178486692335184E-002
 0.648951631489075E-003
 0.145738963303181E-002
 0.157576915843662E-003
 0.470936878771780E-004
 0.177179265827465E-003
 0.113366624781999E-003
 0.889859733781063E-005
 0.114504481637906E-004
 0.170259562695994E-004
 0.118280526875597E-004
 0.633518937595986E-005
 0.549466752133202E-005
 0.402728643632276E-005
 0.519113667039562E-005
 0.704462457542510E-005
 0.814194414014704E-005
 0.110058709538395E-004
 0.855925606779611E-005
 0.367495664889417E-005
 0.311579386028805E-005
 0.285098599942817E-005
 0.307747216792157E-005
 0.104067567229377E+000
 0.105461622372843E+000
 0.156122880400669E+000
 0.109981766094894E+000
 0.377985397446471E-005
 0.424938001916100E-005
 0.581995409595182E-005
 0.457437205468663E-005
 0.259690487435094E-005
 0.204865541478931E-005
 0.239569494159005E-005
 0.241883644520892E-005
 0.123011574023468E-002
 0.218206283447478E-002
 0.429047102453621E-003
 0.791718512776650E-003
 0.112550306432314E-004
 0.133039930444991E-004
 0.926248341521751E-005
 0.112523092715133E-004
 0.488971329995662E-005
 0.651417853885197E-005
 0.671631048679955E-005
 0.586642177474982E-005
 0.139014229579998E-004
 0.100142858804099E-004
 0.177265647523205E-004
 0.135375372498339E-004
 0.455827224590677E-005
 0.305710622387368E-005
 0.331319597742998E-005
 0.363931450863660E-005
 0.131104334296397E-005
 0.218925311781260E-005
 0.179193892135706E-005
 0.173511544725938E-005
 0.631327449002177E-004
 0.134074728572326E-003
 0.110514635826976E-003
 0.109940275083846E-003
 0.371958571753266E-004
 0.505640251165542E-004
 0.832330492452898E-004
 0.499513761876198E-004
 0.309423386019431E-002
 0.443578581606774E-002
 0.136323653261545E-002
 0.279123526319404E-002
 0.907185371541490E-002
 0.361568633026746E-001
 0.690218954411400E-002
 0.146015876091487E-001
 0.281254084595467E-003
 0.187371509061918E-003
 0.464621884452885E-003
 0.305721459928543E-003
 0.860833483777711E-005
 0.118848186649225E-004
 0.117407892256547E-004
 0.107798564820337E-004
 0.409909703365471E-004
 0.120377405213735E-003
 0.535530455053848E-004
 0.609132203197661E-004
 0.755881738020072E-003
 0.374187637246869E-003
 0.153984082533132E-002
 0.883916996360322E-003
 0.248465448782349E-005
 0.289122422700364E-005
 0.315983364867448E-005
 0.283311491298645E-005
 0.795888420221395E-005
 0.588288073350626E-005
 0.602135874755504E-005
 0.655343435290379E-005
 0.477110010143742E-005
 0.450772119471858E-005
 0.387964927519824E-005
 0.434890092410594E-005
 0.791508897266427E-005
 0.586676139072091E-005
 0.567551386742828E-005
 0.638396656035884E-005
 0.186165584157491E-005
 0.272062475653496E-005
 0.245065711821659E-005
 0.227060679792866E-005
 0.110987393755437E-005
 0.160126617961582E-005
 0.137189927885299E-005
 0.126603009134122E-005
 0.170865283999434E-003
 0.197982587052815E-003
 0.397374471811593E-003
 0.203049408432780E-003
 0.465933608518329E-004
 0.374652305678662E-004
 0.494960883615823E-004
 0.449577548014472E-004
 0.145613845399919E-004
 0.214885160767870E-004
 0.136815651166744E-004
 0.160362906825451E-004
 0.296136576853303E-004
 0.165028774217135E-004
 0.167682810289379E-004
 0.191268031722127E-004
 0.124152392487237E-002
 0.466929172334386E-003
 0.784111557569099E-003
 0.760405038848196E-003
 0.274491174904933E-003
 0.508810615461715E-003
 0.197035498222605E-003
 0.256637443402021E-003
 0.504391757135822E-002
 0.136519728099256E-001
 0.116623977637515E-001
 0.118721200202397E-001
 0.277406736025780E-003
 0.330412438163138E-003
 0.196487014263611E-003
 0.254445204242990E-003
 0.224303009034332E-002
 0.128971635361211E-002
 0.448613575914521E-002
 0.234083819058049E-002
 0.142029467953507E-003
 0.951519637299929E-004
 0.181375632580338E-003
 0.145690004861450E-003
 0.694921930594114E-004
 0.801264298513364E-004
 0.114346894208070E-003
 0.819406382241356E-004
 0.794791213726769E-004
 0.623293154728936E-004
 0.378298990221516E-004
 0.621602707015255E-004
 0.168846882485928E+000
 0.114130212901297E+001
 0.383238033784622E+001
 0.118672761980812E+001
 0.348277235174845E-001
 0.453798495463485E-001
 0.568161837737778E-001
 0.542709882969998E-001
 0.132467058144827E-004
 0.135254167091766E-004
 0.381341797470643E-004
 0.172685882570224E-004
 0.343858869353406E-005
 0.324463682878805E-005
 0.417223834243519E-005
 0.362852295181222E-005
 0.141083901106312E+000
 0.154132092934677E+000
 0.100517523632847E+000
 0.106356294306451E+000
 0.315641397151817E-002
 0.259644229556347E-002
 0.343768894355519E-001
 0.142275522376888E-001
 0.234746617696838E-002
 0.215099590651708E-001
 0.234652835146791E-002
 0.127374640640888E-001
 0.457763420195393E-001
 0.115844292912750E-001
 0.518442078401812E-001
 0.332419776496301E-001
 0.551221643959802E-001
 0.352449959434142E-001
 0.887602034920356E-001
 0.399653151504714E-001
 0.186270851983564E-001
 0.851657072346893E-001
 0.524161861708836E-001
 0.265016270585182E-001
 0.765347508860334E-005
 0.104641185478705E-004
 0.729605021039467E-005
 0.828113662161786E-005
 0.116872502445664E-004
 0.762179756461581E-005
 0.119214716291607E-004
 0.104508516047738E-004
 0.357257805507972E-005
 0.526633157721193E-005
 0.579911178436329E-005
 0.480618809571943E-005
 0.322847366753098E-005
 0.308132727147478E-005
 0.503324742788879E-005
 0.378123885489890E-005
 0.644184054797043E-006
 0.110335725348528E-005
 0.818018526750603E-006
 0.872451524691611E-006
 0.251167829594621E-005
 0.170662642457829E-005
 0.188913740074285E-005
 0.203902512320325E-005
 0.115160359132077E-005
 0.143997369849878E-005
 0.199801781480088E-005
 0.147000146319166E-005
 0.643754701843481E-006
 0.169915681539126E-006
 0.453856093249916E-006
 0.372895003640872E-006
 0.597083484379874E-006
 0.428530251742518E-006
 0.157111565321993E-006
 0.334829036338644E-006
 0.244595673869087E-004
 0.164080702480716E-004
 0.236455091306456E-004
 0.217550431685054E-004
 0.692949094771537E-005
 0.105531088914533E-004
 0.765022616783410E-005
 0.814416382656831E-005
 0.992106304838197E-002
 0.420203052294136E-002
 0.321870419586451E-002
 0.438436187760339E-002
 0.141351201679085E+000
 0.216528012456270E+000
 0.179323692986003E+000
 0.172393992556090E+000
 0.129099804461526E-002
 0.276368798589996E-002
 0.181898827048332E-002
 0.179466692259484E-002
 0.269619590756753E-004
 0.256176326509187E-004
 0.193345319137103E-004
 0.230384877839912E-004
 0.445460481751725E-003
 0.221119932372391E-003
 0.363249583313763E-003
 0.357348811195949E-003
 0.417642194461950E-004
 0.486881531600346E-004
 0.364191402770295E-004
 0.417604673950294E-004
 0.348930816003782E-006
 0.498388642632573E-006
 0.133371432324912E-006
 0.331610366864309E-006
 0.601223721978666E-006
 0.106668173274213E-005
 0.739197368981432E-006
 0.737219040677315E-006
 0.195379149338435E-003
 0.957790725056685E-004
 0.138188374724405E-003
 0.129918053643964E-003
 0.373534884287272E-004
 0.576401695288282E-004
 0.592789495137872E-004
 0.528412286984011E-004
 0.186410856477681E-005
 0.121937917297153E-005
 0.189111169517642E-005
 0.164101266383762E-005
 0.149877370073392E-004
 0.762351518640996E-005
 0.937025493692403E-005
 0.107001682705588E-004
 0.382666691718921E-005
 0.472801847339062E-005
 0.495477302719748E-005
 0.436347882226463E-005
 0.511795416409761E-005
 0.446602514426746E-005
 0.577735215733859E-005
 0.514483132884822E-005
 0.521456452817771E-004
 0.330349306917452E-004
 0.324931404383906E-004
 0.363254491067187E-004
 0.427426789339482E-004
 0.357831801245494E-004
 0.564182255808730E-004
 0.435006319964953E-004
 0.105457905097620E-003
 0.728306876837558E-004
 0.114449202180756E-003
 0.101492221999272E-003
 0.255824876022543E-004
 0.174522459176081E-004
 0.203782127775274E-004
 0.214077134921749E-004
 0.284215164988361E-004
 0.343065344966188E-004
 0.234852644347080E-004
 0.284876819171477E-004
 0.149810279109427E-004
 0.227540349828919E-004
 0.194582460011740E-004
 0.184467432873992E-004
 0.112537752070375E-004
 0.109157778972643E-004
 0.805425941732866E-005
 0.998969604752388E-005
 0.644490776250265E-005
 0.411686758182904E-005
 0.584579559557784E-005
 0.534349781218659E-005
 0.405425042524024E-005
 0.595176584231652E-005
 0.584786961754562E-005
 0.485640805083677E-005
 0.446173734337198E-003
 0.119452864773122E-002
 0.514473303977337E-003
 0.533265788154275E-003
 0.735094101971732E-002
 0.104037015203407E-001
 0.331250760041353E-002
 0.744154457129087E-002
 0.105350487961318E-001
 0.221155522745489E-001
 0.189242408528487E-001
 0.144944269518237E-001
 0.705830439656708E+000
 0.369372390883065E+000
 0.491333959580591E+000
 0.615288933556406E+000
 0.681238554795028E-001
 0.684490238941456E-001
 0.532254815067588E-001
 0.677048086022388E-001
 0.214215838972139E+000
 0.174401336772857E+000
 0.100234518323331E+000
 0.184140516664022E+000
 0.260220482468289E-002
 0.395832737954730E-002
 0.879097528423963E-002
 0.359124900542937E-002
 0.175276425523960E-002
 0.817376136900673E-003
 0.642393294878727E-003
 0.821350094461077E-003
 0.475571852592577E-004
 0.514762310051941E-004
 0.437027960023112E-004
 0.472052853146106E-004
 0.381957777683405E-005
 0.451782730719184E-005
 0.576504413636533E-005
 0.455678733287463E-005
 0.574156291477492E-003
 0.733883092801097E-003
 0.111062878522250E-002
 0.707945461454293E-003
 0.308406537532375E-004
 0.243406529619027E-004
 0.345560027021331E-004
 0.297405287064965E-004
 0.269677123878463E-005
 0.225121093009111E-005
 0.231562269749857E-005
 0.235873369326095E-005
 0.447333610505149E-005
 0.335573825699375E-005
 0.393818287107875E-005
 0.385074731145210E-005
 0.218025518431003E-006
 0.580421902394468E-006
 0.628799979864727E-006
 0.425655499855892E-006
 0.142268267543534E-005
 0.868478436252275E-006
 0.852877889847672E-006
 0.107519644975984E-005
 0.846300215157451E-005
 0.164567022748383E-004
 0.110625592381932E-004
 0.108986134112147E-004
 0.393926020912856E-005
 0.539527789984614E-005
 0.418039234349733E-005
 0.448354329496309E-005
 0.339380070326946E-005
 0.292978274481249E-005
 0.257276065680316E-005
 0.297474311149013E-005
 0.475326290189656E-001
 0.737703635192686E-001
 0.790116544295206E-001
 0.510971910560846E-001
 0.216963914497093E-005
 0.292755098237042E-005
 0.230779740801680E-005
 0.248596983471037E-005
 0.266441227104792E-005
 0.332875443989439E-005
 0.356010750782243E-005
 0.311819629279229E-005
 0.151350743973185E-004
 0.133722208860432E-004
 0.173733262488549E-004
 0.151459278122070E-004
 0.190548127719111E-005
 0.117628782410030E-005
 0.173494172350967E-005
 0.150604198973060E-005
 0.739782287372161E-005
 0.995913027911984E-005
 0.787149005980769E-005
 0.824254803325744E-005
 0.121475492834948E-001
 0.184285673514369E-001
 0.130850987297358E+000
 0.131724044867993E-001
 0.824290636222816E-001
 0.146884670689605E+000
 0.858345709933896E-001
 0.121194210896375E+000
 0.572644884009302E-001
 0.564792658739383E-001
 0.206319370126331E+000
 0.604326527339292E-001
 0.439995878363295E-001
 0.317838723397657E-001
 0.298491417448353E-001
 0.336735590199164E-001
 0.381884982070527E-001
 0.239807152943241E-001
 0.116648001820446E-001
 0.202003278417456E-001
 0.133854439990545E+000
 0.678597240387928E-001
 0.126751111715912E+000
 0.153847235178622E+000
 0.888109958758217E+000
 0.508146774155686E+000
 0.840821450685415E+000
 0.830744964375916E+000
 0.109464485856087E-005
 0.868480388372640E-006
 0.145956176243818E-005
 0.108822798263886E-005
 0.314782674995335E+000
 0.208252885529494E+000
 0.253575597731780E+000
 0.251278200650785E+000
 0.595363533878601E-001
 0.857620195646692E-001
 0.132371196091369E+000
 0.123637283432161E+000
 0.207734131267409E-003
 0.331466124090082E-003
 0.259510442701038E-003
 0.261243530361209E-003
 0.395889283190585E-003
 0.243055122374550E-003
 0.172423896787330E-003
 0.252040210569788E-003
 0.158975838785143E-003
 0.177949684289881E-003
 0.213409578357577E-003
 0.179257821693910E-003
 0.369904368397461E-004
 0.353133115889313E-004
 0.437115861985676E-004
 0.376986186620281E-004
 0.671377950298895E-003
 0.643791533946445E-003
 0.349693510266788E-003
 0.616349506757673E-003
 0.165197630879188E-005
 0.156532525915737E-005
 0.103198309484393E-005
 0.137765591722174E-005
 0.124518238400783E-005
 0.149034222625328E-005
 0.927145943224921E-006
 0.124081559534105E-005
 0.464233729629243E-006
 0.335050043030691E-006
 0.112109010646269E-006
 0.227288498803535E-006
 0.663623035385503E-006
 0.103831742796488E-005
 0.113938422997935E-005
 0.926047259120218E-006
 0.210565008879379E-005
 0.326954382206270E-005
 0.213304004321261E-005
 0.236870367656915E-005
 0.350951374360601E-005
 0.366889068054169E-005
 0.216204367063515E-005
 0.297179805535245E-005
 0.349139409138257E-001
 0.626411761527909E-001
 0.372010435513093E-001
 0.521690161418946E-001
 0.718356281849456E-001
 0.181362559378817E-001
 0.406184862481242E-001
 0.326900140284187E-001
 0.194252993096898E-001
 0.495910938360392E-001
 0.579319971108627E-001
 0.214109522149577E-001
 0.257965862300388E-001
 0.296216713540095E-001
 0.119901139365682E-001
 0.188952489612872E-001
 0.189703085952034E-002
 0.196352099125550E-002
 0.152954199843166E-001
 0.847159762591808E-002
 0.199310663729447E-001
 0.236188421906131E-002
 0.227673523377493E-002
 0.115691618395336E-001
 0.159459464840832E+000
 0.191283773270929E+000
 0.318279703739515E+000
 0.153837977061318E+000
 0.257032584892540E+000
 0.129363066677172E+000
 0.162900165071734E+000
 0.110895846685197E+000
 0.862245335067549E-002
 0.362272214827642E-001
 0.115866296550901E-001
 0.479932673640888E-001
 0.976800184572556E-001
 0.116363337263465E+000
 0.135304118294171E+000
 0.123493281777457E+000
 0.225505082431831E+000
 0.192455107059189E+000
 0.232009244795887E+000
 0.203405679955923E+000
 0.341825631837051E+000
 0.414830674436827E+000
 0.518361664594357E+000
 0.341964106168002E+000
 0.157196963054440E+000
 0.131971367472075E+000
 0.138504657486314E+000
 0.143651497111517E+000
 0.279477849418318E+000
 0.396889918326258E+000
 0.216640577602452E+000
 0.217170694843244E+000
 0.560712737315609E-001
 0.197157256705444E-001
 0.553858724437971E-001
 0.298830185360312E-001
 0.116134442301661E+001
 0.710756279333568E+000
 0.104765856693751E+001
 0.945841489603834E+000
 0.764511510058242E-001
 0.120884593023437E+000
 0.788767617879095E-001
 0.113387707870770E+000
 0.188998356166783E+000
 0.160275687499392E+000
 0.141504489867993E+000
 0.191430341203691E+000
 0.497197225708637E-001
 0.996519794321246E-001
 0.368021768988892E-001
 0.733227323030175E-001
 0.242742203928695E+000
 0.143677188142690E+000
 0.309593206807336E+000
 0.352546978507748E+000
 0.756135499524107E-001
 0.646394912990124E-001
 0.571267707240645E-001
 0.583211047761683E-001
 0.461587034659680E-001
 0.135531193904593E+000
 0.610909843126093E-001
 0.488098898603028E-001
 0.356755907883195E+000
 0.354624243351939E+000
 0.316227097212374E+000
 0.323024900694122E+000
 0.174114998947512E+000
 0.814693734596104E-001
 0.159900736529440E+000
 0.157204024366963E+000
 0.397843058870940E+000
 0.459306811389046E+000
 0.307523940354606E+000
 0.332673112681658E+000
 0.608975434800289E+000
 0.517900439544692E+000
 0.994180107440134E+000
 0.739787686031305E+000
 0.268070344021269E+000
 0.297549154508455E+000
 0.352659567963378E+000
 0.288282818396505E+000
 0.439784771252508E+000
 0.514459561379599E+000
 0.551288843499792E+000
 0.507688485583098E+000
 0.298123662360410E+000
 0.239270909956481E+000
 0.257082950952645E+000
 0.271803154610631E+000
 0.926623046752641E+000
 0.105513748048455E+001
 0.652896343895015E+000
 0.761736154788664E+000
 0.201287991222210E+000
 0.201766201518681E+000