# vtk DataFile Version 3.0
Unstructured Grid
ASCII
DATASET UNSTRUCTURED_GRID
FIELD FieldData 1
TIME 1 1 float
  0.801097E+00
POINTS         2102 double
 0.000000000000000E+000 0.000000000000000E+000 0.000000000000000E+000
 0.100000000000000E+001 0.000000000000000E+000 0.000000000000000E+000
 0.100000000000000E+001 0.100000000000000E+001 0.000000000000000E+000
 0.000000000000000E+000 0.100000000000000E+001 0.000000000000000E+000
 0.125000000000000E+000 0.250000000000000E+000 0.000000000000000E+000
 0.375000000000000E+000 0.250000000000000E+000 0.000000000000000E+000
 0.375000000000000E+000 0.750000000000000E+000 0.000000000000000E+000
 0.125000000000000E+000 0.750000000000000E+000 0.000000000000000E+000
 0.625000000000000E+000 0.250000000000000E+000 0.000000000000000E+000
 0.875000000000000E+000 0.250000000000000E+000 0.000000000000000E+000
 0.875000000000000E+000 0.750000000000000E+000 0.000000000000000E+000
 0.625000000000000E+000 0.750000000000000E+000 0.000000000000000E+000
 0.100000000000000E+001 0.500000000000000E+000 0.000000000000000E+000
 0.000000000000000E+000 0.500000000000000E+000 0.000000000000000E+000
 0.500000000000000E+000 0.000000000000000E+000 0.000000000000000E+000
 0.125000000000000E+000 0.500000000000000E+000 0.000000000000000E+000
 0.000000000000000E+000 0.750000000000000E+000 0.000000000000000E+000
 0.000000000000000E+000 0.250000000000000E+000 0.000000000000000E+000
 0.000000000000000E+000 0.875000000000000E+000 0.000000000000000E+000
 0.000000000000000E+000 0.125000000000000E+000 0.000000000000000E+000
 0.000000000000000E+000 0.812500000000000E+000 0.000000000000000E+000
 0.625000000000000E-001 0.812500000000000E+000 0.000000000000000E+000
 0.125000000000000E+000 0.375000000000000E+000 0.000000000000000E+000
 0.000000000000000E+000 0.375000000000000E+000 0.000000000000000E+000
 0.125000000000000E+000 0.625000000000000E+000 0.000000000000000E+000
 0.312500000000000E-001 0.781250000000000E+000 0.000000000000000E+000
 0.000000000000000E+000 0.625000000000000E+000 0.000000000000000E+000
 0.781250000000000E-001 0.765625000000000E+000 0.000000000000000E+000
 0.312500000000000E-001 0.843750000000000E+000 0.000000000000000E+000
 0.500000000000000E+000 0.100000000000000E+001 0.000000000000000E+000
 0.852352799227800E-001 0.850726351351351E+000 0.000000000000000E+000
 0.531250000000000E-001 0.896875000000000E+000 0.000000000000000E+000
 0.128125000000000E+000 0.862500000000000E+000 0.000000000000000E+000
 0.125000000000000E+000 0.100000000000000E+001 0.000000000000000E+000
 0.250000000000000E+000 0.750000000000000E+000 0.000000000000000E+000
 0.000000000000000E+000 0.937500000000000E+000 0.000000000000000E+000
 0.250000000000000E+000 0.100000000000000E+001 0.000000000000000E+000
 0.117915518486872E+000 0.805415518486872E+000 0.000000000000000E+000
 0.201656717908302E+000 0.819893736067327E+000 0.000000000000000E+000
 0.181985294117647E-001 0.906250000000000E+000 0.000000000000000E+000
 0.157158578892515E+000 0.827852167423944E+000 0.000000000000000E+000
 0.187500000000000E+000 0.750000000000000E+000 0.000000000000000E+000
 0.190370748034901E+000 0.885171153579592E+000 0.000000000000000E+000
 0.173219498992632E+000 0.789273026175030E+000 0.000000000000000E+000
 0.125000000000000E+000 0.687500000000000E+000 0.000000000000000E+000
 0.000000000000000E+000 0.687500000000000E+000 0.000000000000000E+000
 0.441080729166667E-001 0.732584635416667E+000 0.000000000000000E+000
 0.625000000000000E-001 0.100000000000000E+001 0.000000000000000E+000
 0.324539302647226E+000 0.874753539998500E+000 0.000000000000000E+000
 0.138239725210285E+000 0.931515391482052E+000 0.000000000000000E+000
 0.218750000000000E+000 0.780050991479902E+000 0.000000000000000E+000
 0.282595248614805E+000 0.815169690490412E+000 0.000000000000000E+000
 0.241894668607517E+000 0.813568527927710E+000 0.000000000000000E+000
 0.259830219207979E+000 0.875750318441249E+000 0.000000000000000E+000
 0.375000000000000E+000 0.687500000000000E+000 0.000000000000000E+000
 0.894072114981556E-001 0.718750000000000E+000 0.000000000000000E+000
 0.156250000000000E+000 0.718750000000000E+000 0.000000000000000E+000
 0.171875000000000E+000 0.671875000000000E+000 0.000000000000000E+000
 0.208984375000000E+000 0.705078125000000E+000 0.000000000000000E+000
 0.187500000000000E+000 0.100000000000000E+001 0.000000000000000E+000
 0.100742481264918E+000 0.901762004578004E+000 0.000000000000000E+000
 0.897955050140944E-001 0.954063112745616E+000 0.000000000000000E+000
 0.454072994832874E-001 0.943019090840959E+000 0.000000000000000E+000
 0.312500000000000E-001 0.978320013898389E+000 0.000000000000000E+000
 0.151802024837252E+000 0.894278844061106E+000 0.000000000000000E+000
 0.312500000000000E+000 0.750000000000000E+000 0.000000000000000E+000
 0.349824395642442E+000 0.812398913150492E+000 0.000000000000000E+000
 0.291845278223558E+000 0.853213315943310E+000 0.000000000000000E+000
 0.312500000000000E+000 0.100000000000000E+001 0.000000000000000E+000
 0.221920040905101E+000 0.857011448773234E+000 0.000000000000000E+000
 0.610875609743251E-001 0.656250000000000E+000 0.000000000000000E+000
 0.575501251937821E-001 0.695518883967223E+000 0.000000000000000E+000
 0.229414059980049E+000 0.912264575939035E+000 0.000000000000000E+000
 0.267409472953924E+000 0.912989160289387E+000 0.000000000000000E+000
 0.247617500704634E+000 0.954276202159214E+000 0.000000000000000E+000
 0.186156415773925E+000 0.932922904662876E+000 0.000000000000000E+000
 0.161177138586098E+000 0.966975254724362E+000 0.000000000000000E+000
 0.281250000000000E+000 0.775106270475024E+000 0.000000000000000E+000
 0.232477697233870E+000 0.641481728091557E+000 0.000000000000000E+000
 0.375000000000000E+000 0.500000000000000E+000 0.000000000000000E+000
 0.343750000000000E+000 0.773669964712841E+000 0.000000000000000E+000
 0.500000000000000E+000 0.836710937419870E+000 0.000000000000000E+000
 0.625000000000000E-001 0.460493798860530E+000 0.000000000000000E+000
 0.225506433867106E-001 0.656250000000000E+000 0.000000000000000E+000
 0.625000000000000E-001 0.578156919744020E+000 0.000000000000000E+000
 0.100683627400278E+000 0.656250000000000E+000 0.000000000000000E+000
 0.808855941873017E-001 0.617548766045778E+000 0.000000000000000E+000
 0.396623706279028E-001 0.612802597169787E+000 0.000000000000000E+000
 0.000000000000000E+000 0.562500000000000E+000 0.000000000000000E+000
 0.209099082089092E+000 0.966015356758449E+000 0.000000000000000E+000
 0.208176344887401E+000 0.668642063067022E+000 0.000000000000000E+000
 0.375000000000000E+000 0.625000000000000E+000 0.000000000000000E+000
 0.281250000000000E+000 0.727693574222975E+000 0.000000000000000E+000
 0.410395729589754E-001 0.531250000000000E+000 0.000000000000000E+000
 0.243044505147503E+000 0.715165207256627E+000 0.000000000000000E+000
 0.427668699245901E+000 0.807527989856971E+000 0.000000000000000E+000
 0.375000000000000E+000 0.100000000000000E+001 0.000000000000000E+000
 0.396556497766215E+000 0.872516538744482E+000 0.000000000000000E+000
 0.125000000000000E+000 0.562500000000000E+000 0.000000000000000E+000
 0.386020873411304E-001 0.491878123024719E+000 0.000000000000000E+000
 0.837862679783012E-001 0.496009823563561E+000 0.000000000000000E+000
 0.181474703505393E+000 0.615400296494607E+000 0.000000000000000E+000
 0.156642498481761E+000 0.640232501518239E+000 0.000000000000000E+000
 0.148741293073547E+000 0.593750000000000E+000 0.000000000000000E+000
 0.198570897886273E+000 0.531250000000000E+000 0.000000000000000E+000
 0.186280074550956E+000 0.572564766212389E+000 0.000000000000000E+000
 0.261115628859886E+000 0.572342169151976E+000 0.000000000000000E+000
 0.223664380580028E+000 0.561200712513239E+000 0.000000000000000E+000
 0.260913847788851E+000 0.504504802962447E+000 0.000000000000000E+000
 0.220403809070327E+000 0.602182935170118E+000 0.000000000000000E+000
 0.280942357260745E+000 0.670965807217831E+000 0.000000000000000E+000
 0.303530083216233E+000 0.699208028468857E+000 0.000000000000000E+000
 0.244300952472090E+000 0.677895460994186E+000 0.000000000000000E+000
 0.278676255979588E+000 0.620116626474426E+000 0.000000000000000E+000
 0.375000000000000E+000 0.562500000000000E+000 0.000000000000000E+000
 0.294783395930685E+000 0.587081428049465E+000 0.000000000000000E+000
 0.296390010773290E+000 0.538188197482711E+000 0.000000000000000E+000
 0.326808615275446E+000 0.623140446700340E+000 0.000000000000000E+000
 0.375000000000000E+000 0.375000000000000E+000 0.000000000000000E+000
 0.341600259444201E+000 0.531250000000000E+000 0.000000000000000E+000
 0.337040360926244E+000 0.581802448479955E+000 0.000000000000000E+000
 0.313454820588085E+000 0.656240056545723E+000 0.000000000000000E+000
 0.244117968371280E+000 0.386059455330322E+000 0.000000000000000E+000
 0.316730626055850E+000 0.471195859600445E+000 0.000000000000000E+000
 0.343361747898823E+000 0.718361747898823E+000 0.000000000000000E+000
 0.387582141166944E+000 0.791354577928815E+000 0.000000000000000E+000
 0.394629419637968E+000 0.831652479273046E+000 0.000000000000000E+000
 0.359139968398398E+000 0.852480346691833E+000 0.000000000000000E+000
 0.449407668689709E+000 0.857876667231944E+000 0.000000000000000E+000
 0.504433083654504E+000 0.918355468709935E+000 0.000000000000000E+000
 0.438910290808154E+000 0.922698775777408E+000 0.000000000000000E+000
 0.487684842153978E+000 0.878322236197629E+000 0.000000000000000E+000
 0.750000000000000E+000 0.100000000000000E+001 0.000000000000000E+000
 0.429264219376497E+000 0.887875644335434E+000 0.000000000000000E+000
 0.297282757956014E+000 0.952697072250340E+000 0.000000000000000E+000
 0.308758340495749E+000 0.912972519020668E+000 0.000000000000000E+000
 0.353713070703707E+000 0.947478792032462E+000 0.000000000000000E+000
 0.343750000000000E+000 0.982091257636542E+000 0.000000000000000E+000
 0.437500000000000E+000 0.100000000000000E+001 0.000000000000000E+000
 0.386196294810884E+000 0.916319687483247E+000 0.000000000000000E+000
[...]
CELL_DATA         4076
SCALARS tdens double 1
LOOKUP_TABLE default
 0.594238122094921E-002
 0.687178960948178E-002
 0.800517378944039E-002
 0.699606446380448E-002
 0.586781276788881E-001
 0.523553499785300E-001
 0.510762489982398E-001
 0.542140862381849E-001
 0.106138356863556E+000
 0.115618645029446E+000
 0.126686683104030E+000
 0.115872092512822E+000
 0.658946792678328E-002
 0.874211385519718E-002
 0.827624660794629E-002
 0.760279883869518E-002
 0.100216682350517E-001
 0.123063732057907E-001
 0.120820908139649E-001
 0.112708115886354E-001
 0.118772383977766E-001
 0.136140081143993E-001
 0.132253594168739E-001
 0.127323251718903E-001
 0.653636899155676E-001
 0.556180329410001E-001
 0.593548287311172E-001
 0.623213402616643E-001
 0.588366598458937E-001
 0.683668087265746E-001
 0.652287856678612E-001
 0.637348398852241E-001
 0.728276975541599E-001
 0.670203771086906E-001
 0.707721022434417E-001
 0.698866132872016E-001
 0.869863492885000E-002
 0.935237352786596E-002
 0.923097606611185E-002
 0.913724159575443E-002
 0.288907631836821E-001
 0.279496280031902E-001
 0.264863394058927E-001
 0.278600332155488E-001
 0.131545887909231E+000
 0.119925648606294E+000
 0.114501137061386E+000
 0.123985007395444E+000
 0.539903383728412E-002
 0.602795196707017E-002
 0.729873585792318E-002
 0.605952635698809E-002
 0.812256235478935E-001
 0.886636499281651E-001
 0.874435788925645E-001
 0.870130431701852E-001
 0.406299816864171E-001
 0.381358453852235E-001
 0.384791185708842E-001
 0.392657378981236E-001
 0.403457665897058E-001
 0.355465154294377E-001
 0.329737119749206E-001
 0.362217857499105E-001
 0.104397580624300E-001
 0.113750393499103E-001
 0.131378974621024E-001
 0.118198910795939E-001
 0.177647993365357E-001
 0.167315834910949E-001
 0.141760896481625E-001
 0.157542915328034E-001
 0.428233949752327E-002
 0.405801081969502E-002
 0.701650239730492E-002
 0.520957149854500E-002
 0.969879639528386E-001
 0.103314050325256E+000
 0.888093309007376E-001
 0.961905588626907E-001
 0.511471071262194E-001
 0.381929459953541E-001
 0.494809787795845E-001
 0.459489935471848E-001
 0.907905926235410E-002
 0.986307437464206E-002
 0.972224327836330E-002
 0.959545244316497E-002
 0.464950810745462E-001
 0.358151471172832E-001
 0.442821262639859E-001
 0.421551126219727E-001
 0.979695626439217E-002
 0.893173271473977E-002
 0.978670419265192E-002
 0.925256870572041E-002
 0.331077291434837E-001
 0.454274788300019E-001
 0.341592722510474E-001
 0.365844621197022E-001
 0.328936567915020E-001
 0.278545942363343E-001
 0.268420416164305E-001
 0.292519748748199E-001
 0.107270915624545E-001
 0.133645910124883E-001
 0.104690035632483E-001
 0.116613181066436E-001
 0.643254816589606E-001
 0.774338617273646E-001
 0.654300148011314E-001
 0.718113229389160E-001
 0.127261049763109E-001
 0.136587813330786E-001
 0.117335281616744E-001
 0.125371740354260E-001
 0.207000821208278E-001
 0.158622802465541E-001
 0.169319315732114E-001
 0.176157219735601E-001
 0.123122465546259E-001
 0.149931297314909E-001
 0.141703011472503E-001
 0.135132294091129E-001
 0.153178385154147E-001
 0.132759393116590E-001
 0.129406246391748E-001
 0.140512340666860E-001
 0.186982677705492E-001
 0.212147284828817E-001
 0.163196022864742E-001
 0.183444631461965E-001
 0.139143630901755E-001
 0.158884335360254E-001
 0.175069509326421E-001
 0.157968973466049E-001
 0.795039201621381E-002
 0.708970461862092E-002
 0.505001096457792E-002
 0.656502470545972E-002
 0.894627478461768E-001
 0.890439243430685E-001
 0.920371700136755E-001
 0.906329917947423E-001
 0.187564178643794E-001
 0.155016570295052E-001
 0.210589374514340E-001
 0.179364467297545E-001
 0.728538463643103E-002
 0.632817715192455E-002
 0.786272817901335E-002
 0.715017663684248E-002
 0.131036617696195E-001
 0.117762379381300E-001
 0.136802459693491E-001
 0.126650064558423E-001
 0.106574346689299E-001
 0.102170055753388E-001
 0.100934958700351E-001
 0.102862814137945E-001
 0.106169889370591E-001
 0.103879661163260E-001
 0.120114835237655E-001
 0.109782259645701E-001
 0.166696869356426E-001
 0.148663048069702E-001
 0.201466064883788E-001
 0.168410010690491E-001
 0.831274211058316E-002
 0.913289208800665E-002
 0.790545709442466E-002
 0.862046839513022E-002
 0.240883529800953E-002
 0.153475015306569E-002
 0.198904565673252E-002
 0.204538449547988E-002
 0.395286906179058E-001
 0.423826158324907E-001
 0.421488126858659E-001
 0.410512121965347E-001
 0.324661766538195E-002
 0.441867268984804E-002
 0.512557446244586E-002
 0.413593792436514E-002
 0.607117902821413E-001
 0.662601266469360E-001
 0.514334744609835E-001
 0.584942130098986E-001
 0.272296407404736E-001
 0.191821952566041E-001
 0.246626134447869E-001
 0.233518054318451E-001
 0.114781854458757E-001
 0.131628371848046E-001
 0.144103037153514E-001
 0.128670446381923E-001
 0.859818252685965E-002
 0.762804513026224E-002
 0.646414410138090E-002
 0.738007180673538E-002
 0.866598054717920E-002
 0.961009654964217E-002
 0.109478110802787E-001
 0.981782826795017E-002
 0.683028068673526E-002
 0.573968353657652E-002
 0.574763761263782E-002
 0.591045215371343E-002
 0.319892522044899E-001
 0.297052417385832E-001
 0.400095406821619E-001
 0.336309217647882E-001
 0.630637942485116E-002
 0.727949292108718E-002
 0.829287144140461E-002
 0.743040038058648E-002
 0.498412441780480E-002
 0.431931741354382E-002
 0.500710293216664E-002
 0.489576771083222E-002
 0.316867439440776E-001
 0.435159183474425E-001
 0.326547079455252E-001
 0.366186251534596E-001
 0.137351685684241E-001
 0.154958822743803E-001
 0.125033772162551E-001
 0.138307756784714E-001
 0.824499054010045E-002
 0.973142241928250E-002
 0.936969343715581E-002
 0.885823213468058E-002
 0.124610695257693E-001
 0.109862263440843E-001
 0.142039665041385E-001
 0.123099977554256E-001
 0.661533637283285E-002
 0.510758081962092E-002
 0.546537418392065E-002
 0.583376336914139E-002
 0.312868102496931E-002
 0.469192693061172E-002
 0.396511857712957E-002
 0.389175257055965E-002
 0.224533033478080E-001
 0.279951007018506E-001
 0.274008502022509E-001
 0.255373959934754E-001
 0.187257290952869E-001
 0.201341395987500E-001
 0.243158528673861E-001
 0.212904877595150E-001
 0.542290040962906E-001
 0.636053899704394E-001
 0.500894016212472E-001
 0.562392996343792E-001
 0.327330046560201E-001
 0.336140963277631E-001
 0.446470710970467E-001
 0.359465748047100E-001
 0.374602725081632E-001
 0.325427587203830E-001
 0.407651878733712E-001
 0.365918966983550E-001
 0.100776017950123E-001
 0.117821753494398E-001
 0.121431935800793E-001
 0.111690868001428E-001
 0.183685149218274E-001
 0.251517083835849E-001
 0.201620947230752E-001
 0.213565576004701E-001
 0.438947614584921E-001
 0.358097896289746E-001
 0.467176423649658E-001
 0.416470259105311E-001
 0.694153440989831E-002
 0.780858375902243E-002
 0.841360044049332E-002
 0.773058852715642E-002
 0.120344762597331E-001
 0.105899829784577E-001
 0.111427932761187E-001
 0.112827938135434E-001
 0.103379279939542E-001
 0.100502885124819E-001
 0.957043221779857E-002
 0.100298867877793E-001
 0.128952113179592E-001
 0.113140158428399E-001
 0.113020837340189E-001
 0.119453348939169E-001
 0.364975871487191E-002
 0.486814239140727E-002
 0.444345193838264E-002
 0.416056469932926E-002
 0.268146336794805E-002
 0.356551923724017E-002
 0.298487985741976E-002
 0.288312474461894E-002
 0.373832927493281E-001
 0.379358494890331E-001
 0.468647342880444E-001
 0.406573943553511E-001
 0.279163120070084E-001
 0.249822103811385E-001
 0.271283783720336E-001
 0.266042451984133E-001
 0.138329430721614E-001
 0.167002084559635E-001
 0.140970171339359E-001
 0.151104096871089E-001
 0.164953038139199E-001
 0.130975890137253E-001
 0.131958580300396E-001
 0.144854917213480E-001
 0.547977832959759E-001
 0.425222779844328E-001
 0.467369437775881E-001
 0.478082121544963E-001
 0.322722673263897E-001
 0.394402099705972E-001
 0.311437093470670E-001
 0.343699411089986E-001
 0.787005841027736E-001
 0.857814079259645E-001
 0.908824270521686E-001
 0.849494108206937E-001
 0.383129791311184E-001
 0.414920434348639E-001
 0.368446606529191E-001
 0.390880007329652E-001
 0.609661318479717E-001
 0.524008480100354E-001
 0.650718437228454E-001
 0.589724669952315E-001
 0.343434135392123E-001
 0.299220907708642E-001
 0.353034740323112E-001
 0.325550364890830E-001
 0.283184949327646E-001
 0.281030456638492E-001
 0.320078146288692E-001
 0.298576270163987E-001
 0.256372996019714E-001
 0.240349512079798E-001
 0.199898925627005E-001
 0.225253594835017E-001
 0.353040674775237E+000
 0.330771776408168E+000
 0.388145718678805E+000
 0.373211143707385E+000
 0.871698763107324E-001
 0.913069688115423E-001
 0.972021999064477E-001
 0.924933121154355E-001
 0.144521630181973E-001
 0.152389560571716E-001
 0.189799427322329E-001
 0.162636603449312E-001
 0.889662319556662E-002
 0.844530155503506E-002
 0.979472432862872E-002
 0.915371883113820E-002
 0.563640879365087E-001
 0.541102829153489E-001
 0.410899346169438E-001
 0.475928534163424E-001
 0.245864689082440E-001
 0.197854430704288E-001
 0.269269010592886E-001
 0.232521483959754E-001
 0.125650338924144E-001
 0.145329724029496E-001
 0.155572462163412E-001
 0.133240647166159E-001
 0.256090955337454E-001
 0.183349531560331E-001
 0.236304536909196E-001
 0.228940088110936E-001
 0.967718085335938E-001
 0.888864188005591E-001
 0.989827504447103E-001
 0.959182982877881E-001
 0.530201030113522E-001
 0.499920055224734E-001
 0.571576750391508E-001
 0.511410915739100E-001
 0.948823920043460E-002
 0.115539024453236E-001
 0.972984446346816E-002
 0.102692736478002E-001
 0.115551317058417E-001
 0.918884698060490E-002
 0.116217177714455E-001
 0.105254911292360E-001
 0.588047683555701E-002
 0.740648432128174E-002
 0.801086201287223E-002
 0.683899097692591E-002
 0.591702858622770E-002
 0.531286376669290E-002
 0.731550976256550E-002
 0.639916704137772E-002
 0.159389036406217E-002
 0.241908462020760E-002
 0.201984621002749E-002
 0.206261991200191E-002
 0.466908772579343E-002
 0.343279851601071E-002
 0.393597291448368E-002
 0.410191870098290E-002
 0.267461967815049E-002
 0.298491648428483E-002
 0.390001766598752E-002
 0.309368229424253E-002
 0.168709595398695E-002
 0.513142285894876E-003
 0.121239129454875E-002
 0.102934554523643E-002
 0.159003366614340E-002
 0.113747763219862E-002
 0.472701768784648E-003
 0.915245632594478E-003
 0.177364289095781E-001
 0.146356333638740E-001
 0.167384688092523E-001
 0.160427336308981E-001
 0.845761308580924E-002
 0.107052814459608E-001
 0.908370408225231E-002
 0.956358049286524E-002
 0.795321235948661E-001
 0.732197905094387E-001
 0.676384191954442E-001
 0.733732243887396E-001
 0.329006047323297E-001
 0.416153751305968E-001
 0.431836207215713E-001
 0.377721935920171E-001
 0.616668801907061E-001
 0.679079340364215E-001
 0.640936627883935E-001
 0.646892291080640E-001
 0.220385955739290E-001
 0.222606499758367E-001
 0.190843597190780E-001
 0.210988505313074E-001
 0.496061470013061E-001
 0.397481980006102E-001
 0.447042087062705E-001
 0.440984361033944E-001
 0.239085535430488E-001
 0.261456022234797E-001
 0.238832731555231E-001
 0.246044224337227E-001
 0.105345560354457E-002
 0.151173858229855E-002
 0.411124387883853E-003
 0.100118584392243E-002
 0.177968466382379E-002
 0.307507611703754E-002
 0.220808338984884E-002
 0.217290246542072E-002
 0.336222648785846E-001
 0.269853707848271E-001
 0.291784503588428E-001
 0.299980075026751E-001
 0.211236718080828E-001
 0.241749957454011E-001
 0.252763577974381E-001
 0.231431102571889E-001
 0.537868499625777E-002
 0.365681668596540E-002
 0.538074355936950E-002
 0.480124138280877E-002
 0.162175208993770E-001
 0.134800878857529E-001
 0.137923056291883E-001
 0.145639502831141E-001
 0.951016618611675E-002
 0.105020911120576E-001
 0.106317668763119E-001
 0.100501787672981E-001
 0.109006202163517E-001
 0.101307150291397E-001
 0.116508376370490E-001
 0.109001204056788E-001
 0.220943502780575E-001
 0.192877105831707E-001
 0.183935343842352E-001
 0.201465119109905E-001
 0.229763480556938E-001
 0.208409927044482E-001
 0.247647699346577E-001
 0.228550593037727E-001
 0.338738540201452E-001
 0.300620723140104E-001
 0.339160942238333E-001
 0.319388846933198E-001
 0.212912937797006E-001
 0.181118404387872E-001
 0.186949176093837E-001
 0.192602902244969E-001
 0.193836686194970E-001
 0.215140530959506E-001
 0.188524011450975E-001
 0.198776005710004E-001
 0.152029454836839E-001
 0.177952209776986E-001
 0.174324469680316E-001
 0.165033515945852E-001
 0.124317137620750E-001
 0.128238964831383E-001
 0.106181879348290E-001
 0.118624538122983E-001
 0.984218706215073E-002
 0.731171138614894E-002
 0.898301241315542E-002
 0.866597982393472E-002
 0.707448489038738E-002
 0.848126170883602E-002
 0.878483705848877E-002
 0.758848552898239E-002
 0.423045461852906E-001
 0.538350160822528E-001
 0.455522184349047E-001
 0.472847509456660E-001
 0.718680687281738E-001
 0.790461731130632E-001
 0.669481547294273E-001
 0.729790741582808E-001
 0.742645579418425E-001
 0.764237905507351E-001
 0.816494531137976E-001
 0.778774427113762E-001
 0.939339367363841E-001
 0.869796342863311E-001
 0.729240228710846E-001
 0.815326765678329E-001
 0.257235413142793E-001
 0.247312641731084E-001
 0.200472405732309E-001
 0.225893781899460E-001
 0.518366461060363E-001
 0.435968291533797E-001
 0.359087544580228E-001
 0.439491982387436E-001
 0.708554046067871E-001
 0.751175154257306E-001
 0.853451856446617E-001
 0.768667014809694E-001
 0.635488746415972E-001
 0.550185284447297E-001
 0.500695719698974E-001
 0.567399380787455E-001
 0.295519710661123E-001
 0.312395060096800E-001
 0.294763070537573E-001
 0.298631554542854E-001
 0.933934960860960E-002
 0.991740817514467E-002
 0.115633425325477E-001
 0.103724282193229E-001
 0.535394854965359E-001
 0.553679427477681E-001
 0.610046740066444E-001
 0.567623984282150E-001
 0.223578137626184E-001
 0.196960675793095E-001
 0.222039778706490E-001
 0.213416876757175E-001
 0.736815509577990E-002
 0.637384505013156E-002
 0.642899987491471E-002
 0.657129642353435E-002
 0.102142073050501E-001
 0.861749890691295E-002
 0.945078521256464E-002
 0.929496270292279E-002
 0.684365976747454E-003
 0.177373067953298E-002
 0.195886086994713E-002
 0.132848860937416E-002
 0.408938835965961E-002
 0.263687294115177E-002
 0.253917600396458E-002
 0.319941733065853E-002
 0.137713706666301E-001
 0.165199407689149E-001
 0.147723318571747E-001
 0.151794098064034E-001
 0.932958798401824E-002
 0.112104703467108E-001
 0.965893699249746E-002
 0.101781232804010E-001
 0.849736850426052E-002
 0.776151037347956E-002
 0.692367605357488E-002
 0.782299214046975E-002
 0.160662398249886E-001
 0.281722244418516E-001
 0.257387817196623E-001
 0.216668980263147E-001
 0.593034123381593E-002
 0.756134702723523E-002
 0.626895710379528E-002
 0.669566756278511E-002
 0.711141877643664E-002
 0.837502116963260E-002
 0.879606695984153E-002
 0.793023410601201E-002
 0.164497357448591E-001
 0.147475220963237E-001
 0.169042755614967E-001
 0.162183773227620E-001
 0.540241424464561E-002
 0.352850979964000E-002
 0.494036507443781E-002
 0.433836766844017E-002
 0.102832612697660E-001
 0.124533692825981E-001
 0.111348713215561E-001
 0.112748522009079E-001
 0.151856034402269E+000
 0.152365478074466E+000
 0.209231597912312E+000
 0.166770587358674E+000
 0.291237454896227E-001
 0.369672167001170E-001
 0.279514031147207E-001
 0.331387339637234E-001
 0.160294009359323E+000
 0.150824554763923E+000
 0.178480090844804E+000
 0.163867538940101E+000
 0.873883135878205E-001
 0.846043158079442E-001
 0.801204948663746E-001
 0.823809415381152E-001
 0.661917972225914E-001
 0.731915551651572E-001
 0.704715336559439E-001
 0.687289604041466E-001
 0.108057715512159E+000
 0.959863803645671E-001
 0.939278690295552E-001
 0.973240511357061E-001
 0.134089429658003E+000
 0.119910551314739E+000
 0.112581530574536E+000
 0.121207997493308E+000
 0.310277250820709E-002
 0.259910864070335E-002
 0.412169055532492E-002
 0.313814286977153E-002
 0.563060988809296E-001
 0.483077473212579E-001
 0.469612705822224E-001
 0.499809947482011E-001
 0.582403355854342E-001
 0.505462370573021E-001
 0.591149269626693E-001
 0.561060590477489E-001
 0.437805656705644E-001
 0.484716616102395E-001
 0.464949064902861E-001
 0.461046977991703E-001
 0.479789646266070E-001
 0.430345534209966E-001
 0.387087319643435E-001
 0.431133772287533E-001
 0.415995648302676E-001
 0.422713775800520E-001
 0.446930200818197E-001
 0.428218711191670E-001
 0.264049021285100E-001
 0.248151059889531E-001
 0.276788064577628E-001
 0.263217937941602E-001
 0.574377303508116E-001
 0.569502094300375E-001
 0.504377904185111E-001
 0.545387021310293E-001
 0.482232441939937E-002
 0.446646414825175E-002
 0.310734405439854E-002
 0.404841126990604E-002
 0.356569337328894E-002
 0.427477896778856E-002
 0.273500001705345E-002
 0.360650433603424E-002
 0.143932083359083E-002
 0.101054975453160E-002
 0.345406954003523E-003
 0.696174659863795E-003
 0.194864957260303E-002
 0.295526626558912E-002
 0.324171873318394E-002
 0.265267001775957E-002
 0.589117635189029E-002
 0.813073057595756E-002
 0.590663838067491E-002
 0.656874901216303E-002
 0.726945304587995E-002
 0.831256097168210E-002
 0.604866944460123E-002
 0.744342598762896E-002
 0.142695188621408E-001
 0.226325444225237E-001
 0.174214061319460E-001
 0.177105160654518E-001
 0.210459270585051E-001
 0.829213723916729E-002
 0.106879378667808E-001
 0.108282560461914E-001
 0.172918206806528E-001
 0.172332396982985E-001
 0.216437182251920E-001
 0.178002465895336E-001
 0.108110898921469E-001
 0.136024979169118E-001
 0.109470861449521E-001
 0.114292831476218E-001
 0.106901689470511E-001
 0.901758962026858E-002
 0.935832793611153E-002
 0.883156903614296E-002
 0.685065684285861E-002
 0.717176454820007E-002
 0.628276034184354E-002
 0.573823678487825E-002
 0.623748805114092E-001
 0.822495651380586E-001
 0.759293510543572E-001
 0.732214529774688E-001
 0.560726841101788E-001
 0.392264608611935E-001
 0.536110635166637E-001
 0.464226923546404E-001
 0.732666343283924E-002
 0.193555740033407E-001
 0.104249874479594E-001
 0.128007149469968E-001
 0.359761080372151E-001
 0.405924881188948E-001
 0.510993316173805E-001
 0.444315676628469E-001
 0.912035996727735E-001
 0.733319164337833E-001
 0.917513206509673E-001
 0.833758453423863E-001
 0.155454725595450E+000
 0.186141500721526E+000
 0.178403980650401E+000
 0.170066722203402E+000
 0.584264600081949E-001
 0.475181844583673E-001
 0.581262881712748E-001
 0.529774626888369E-001
 0.915488736062887E-001
 0.952564267958968E-001
 0.709710756078167E-001
 0.825681938592109E-001
 0.123266572763068E-001
 0.647295688844516E-002
 0.145492920871997E-001
 0.100564332949821E-001
 0.142632980070869E+000
 0.147000914956520E+000
 0.141930226266620E+000
 0.144484171502012E+000
 0.335151870399718E-001
 0.455719196190425E-001
 0.315273160313441E-001
 0.393056219532576E-001
 0.802782563569861E-001
 0.613538380983481E-001
 0.639694438993323E-001
 0.717505630293178E-001
 0.668475501837596E-001
 0.792481100406930E-001
 0.745735409336334E-001
 0.728654835220910E-001
 0.646529095267953E-001
 0.623520320067529E-001
 0.846433415090700E-001
 0.743343892784023E-001
 0.130230052740133E+000
 0.109770029036555E+000
 0.102601559426014E+000
 0.111119022206461E+000
 0.778264087291860E-001
 0.843938957044494E-001
 0.867548332003025E-001
 0.853213783798630E-001
 0.578455167845902E-001
 0.594934175675746E-001
 0.491559983490003E-001
 0.552677724477616E-001
 0.777339110152898E-001
 0.655081163585918E-001
 0.666077717275025E-001
 0.674790466482207E-001
 0.117217181843157E+000
 0.105411523200193E+000
 0.102273592333013E+000
 0.108525588372792E+000
 0.112652079560935E+000
 0.126275453784244E+000
 0.135798130494695E+000
 0.125976550733484E+000
 0.108890850020724E+000
 0.130131238234696E+000
 0.125513518655915E+000
 0.118744673174357E+000
 0.202196743823001E+000
 0.224468595383803E+000
 0.192447996140529E+000
 0.208696812523485E+000
 0.122461013984038E+000
 0.101812835376563E+000
 0.102127944936983E+000
 0.110856046298739E+000
 0.166024074122374E+000
 0.150068559378177E+000
 0.140745414379662E+000
 0.150674487131749E+000
 0.129506045384983E+000
 0.100566243224420E+000