# vtk DataFile Version 3.0
Unstructured Grid
ASCII
DATASET UNSTRUCTURED_GRID
FIELD FieldData 1
TIME 1 1 float
  0.279585E+02
POINTS         2102 double
 0.000000000000000E+000 0.000000000000000E+000 0.000000000000000E+000
 0.100000000000000E+001 0.000000000000000E+000 0.000000000000000E+000
 0.100000000000000E+001 0.100000000000000E+001 0.000000000000000E+000
 0.000000000000000E+000 0.100000000000000E+001 0.000000000000000E+000
 0.125000000000000E+000 0.250000000000000E+000 0.000000000000000E+000
 0.375000000000000E+000 0.250000000000000E+000 0.000000000000000E+000
 0.375000000000000E+000 0.750000000000000E+000 0.000000000000000E+000
 0.125000000000000E+000 0.750000000000000E+000 0.000000000000000E+000
 0.625000000000000E+000 0.250000000000000E+000 0.000000000000000E+000
 0.875000000000000E+000 0.250000000000000E+000 0.000000000000000E+000
 0.875000000000000E+000 0.750000000000000E+000 0.000000000000000E+000
 0.625000000000000E+000 0.750000000000000E+000 0.000000000000000E+000
 0.100000000000000E+001 0.500000000000000E+000 0.000000000000000E+000
 0.000000000000000E+000 0.500000000000000E+000 0.000000000000000E+000
 0.500000000000000E+000 0.000000000000000E+000 0.000000000000000E+000
 0.125000000000000E+000 0.500000000000000E+000 0.000000000000000E+000
 0.000000000000000E+000 0.750000000000000E+000 0.000000000000000E+000
 0.000000000000000E+000 0.250000000000000E+000 0.000000000000000E+000
 0.000000000000000E+000 0.875000000000000E+000 0.000000000000000E+000
 0.000000000000000E+000 0.125000000000000E+000 0.000000000000000E+000
 0.000000000000000E+000 0.812500000000000E+000 0.000000000000000E+000
 0.625000000000000E-001 0.812500000000000E+000 0.000000000000000E+000
 0.125000000000000E+000 0.375000000000000E+000 0.000000000000000E+000
 0.000000000000000E+000 0.375000000000000E+000 0.000000000000000E+000
 0.125000000000000E+000 0.625000000000000E+000 0.000000000000000E+000
 0.312500000000000E-001 0.781250000000000E+000 0.000000000000000E+000
 0.000000000000000E+000 0.625000000000000E+000 0.000000000000000E+000
 0.781250000000000E-001 0.765625000000000E+000 0.000000000000000E+000
 0.312500000000000E-001 0.843750000000000E+000 0.000000000000000E+000
 0.500000000000000E+000 0.100000000000000E+001 0.000000000000000E+000
 0.852352799227800E-001 0.850726351351351E+000 0.000000000000000E+000
 0.531250000000000E-001 0.896875000000000E+000 0.000000000000000E+000
 0.128125000000000E+000 0.862500000000000E+000 0.000000000000000E+000
 0.125000000000000E+000 0.100000000000000E+001 0.000000000000000E+000
 0.250000000000000E+000 0.750000000000000E+000 0.000000000000000E+000
 0.000000000000000E+000 0.937500000000000E+000 0.000000000000000E+000
 0.250000000000000E+000 0.100000000000000E+001 0.000000000000000E+000
 0.117915518486872E+000 0.805415518486872E+000 0.000000000000000E+000
 0.201656717908302E+000 0.819893736067327E+000 0.000000000000000E+000
 0.181985294117647E-001 0.906250000000000E+000 0.000000000000000E+000
 0.157158578892515E+000 0.827852167423944E+000 0.000000000000000E+000
 0.187500000000000E+000 0.750000000000000E+000 0.000000000000000E+000
 0.190370748034901E+000 0.885171153579592E+000 0.000000000000000E+000
 0.173219498992632E+000 0.789273026175030E+000 0.000000000000000E+000
 0.125000000000000E+000 0.687500000000000E+000 0.000000000000000E+000
 0.000000000000000E+000 0.687500000000000E+000 0.000000000000000E+000
 0.441080729166667E-001 0.732584635416667E+000 0.000000000000000E+000
 0.625000000000000E-001 0.100000000000000E+001 0.000000000000000E+000
 0.324539302647226E+000 0.874753539998500E+000 0.000000000000000E+000
 0.138239725210285E+000 0.931515391482052E+000 0.000000000000000E+000
 0.218750000000000E+000 0.780050991479902E+000 0.000000000000000E+000
 0.282595248614805E+000 0.815169690490412E+000 0.000000000000000E+000
 0.241894668607517E+000 0.813568527927710E+000 0.000000000000000E+000
 0.259830219207979E+000 0.875750318441249E+000 0.000000000000000E+000
 0.375000000000000E+000 0.687500000000000E+000 0.000000000000000E+000
 0.894072114981556E-001 0.718750000000000E+000 0.000000000000000E+000
 0.156250000000000E+000 0.718750000000000E+000 0.000000000000000E+000
 0.171875000000000E+000 0.671875000000000E+000 0.000000000000000E+000
 0.208984375000000E+000 0.705078125000000E+000 0.000000000000000E+000
 0.187500000000000E+000 0.100000000000000E+001 0.000000000000000E+000
 0.100742481264918E+000 0.901762004578004E+000 0.000000000000000E+000
 0.897955050140944E-001 0.954063112745616E+000 0.000000000000000E+000
 0.454072994832874E-001 0.943019090840959E+000 0.000000000000000E+000
 0.312500000000000E-001 0.978320013898389E+000 0.000000000000000E+000
 0.151802024837252E+000 0.894278844061106E+000 0.000000000000000E+000
 0.312500000000000E+000 0.750000000000000E+000 0.000000000000000E+000
 0.349824395642442E+000 0.812398913150492E+000 0.000000000000000E+000
 0.291845278223558E+000 0.853213315943310E+000 0.000000000000000E+000
 0.312500000000000E+000 0.100000000000000E+001 0.000000000000000E+000
 0.221920040905101E+000 0.857011448773234E+000 0.000000000000000E+000
 0.610875609743251E-001 0.656250000000000E+000 0.000000000000000E+000
 0.575501251937821E-001 0.695518883967223E+000 0.000000000000000E+000
 0.229414059980049E+000 0.912264575939035E+000 0.000000000000000E+000
 0.267409472953924E+000 0.912989160289387E+000 0.000000000000000E+000
 0.247617500704634E+000 0.954276202159214E+000 0.000000000000000E+000
 0.186156415773925E+000 0.932922904662876E+000 0.000000000000000E+000
 0.161177138586098E+000 0.966975254724362E+000 0.000000000000000E+000
 0.281250000000000E+000 0.775106270475024E+000 0.000000000000000E+000
 0.232477697233870E+000 0.641481728091557E+000 0.000000000000000E+000
 0.375000000000000E+000 0.500000000000000E+000 0.000000000000000E+000
 0.343750000000000E+000 0.773669964712841E+000 0.000000000000000E+000
 0.500000000000000E+000 0.836710937419870E+000 0.000000000000000E+000
 0.625000000000000E-001 0.460493798860530E+000 0.000000000000000E+000
 0.225506433867106E-001 0.656250000000000E+000 0.000000000000000E+000
 0.625000000000000E-001 0.578156919744020E+000 0.000000000000000E+000
 0.100683627400278E+000 0.656250000000000E+000 0.000000000000000E+000
 0.808855941873017E-001 0.617548766045778E+000 0.000000000000000E+000
 0.396623706279028E-001 0.612802597169787E+000 0.000000000000000E+000
 0.000000000000000E+000 0.562500000000000E+000 0.000000000000000E+000
 0.209099082089092E+000 0.966015356758449E+000 0.000000000000000E+000
 0.208176344887401E+000 0.668642063067022E+000 0.000000000000000E+000
 0.375000000000000E+000 0.625000000000000E+000 0.000000000000000E+000
 0.281250000000000E+000 0.727693574222975E+000 0.000000000000000E+000
 0.410395729589754E-001 0.531250000000000E+000 0.000000000000000E+000
 0.243044505147503E+000 0.715165207256627E+000 0.000000000000000E+000
 0.427668699245901E+000 0.807527989856971E+000 0.000000000000000E+000
 0.375000000000000E+000 0.100000000000000E+001 0.000000000000000E+000
 0.396556497766215E+000 0.872516538744482E+000 0.000000000000000E+000
 0.125000000000000E+000 0.562500000000000E+000 0.000000000000000E+000
 0.386020873411304E-001 0.491878123024719E+000 0.000000000000000E+000
 0.837862679783012E-001 0.496009823563561E+000 0.000000000000000E+000
 0.181474703505393E+000 0.615400296494607E+000 0.000000000000000E+000
 0.156642498481761E+000 0.640232501518239E+000 0.000000000000000E+000
 0.148741293073547E+000 0.593750000000000E+000 0.000000000000000E+000
 0.198570897886273E+000 0.531250000000000E+000 0.000000000000000E+000
 0.186280074550956E+000 0.572564766212389E+000 0.000000000000000E+000
 0.261115628859886E+000 0.572342169151976E+000 0.000000000000000E+000
 0.223664380580028E+000 0.561200712513239E+000 0.000000000000000E+000
 0.260913847788851E+000 0.504504802962447E+000 0.000000000000000E+000
 0.220403809070327E+000 0.602182935170118E+000 0.000000000000000E+000
 0.280942357260745E+000 0.670965807217831E+000 0.000000000000000E+000
 0.303530083216233E+000 0.699208028468857E+000 0.000000000000000E+000
 0.244300952472090E+000 0.677895460994186E+000 0.000000000000000E+000
 0.278676255979588E+000 0.620116626474426E+000 0.000000000000000E+000
 0.375000000000000E+000 0.562500000000000E+000 0.000000000000000E+000
 0.294783395930685E+000 0.587081428049465E+000 0.000000000000000E+000
 0.296390010773290E+000 0.538188197482711E+000 0.000000000000000E+000
 0.326808615275446E+000 0.623140446700340E+000 0.000000000000000E+000
 0.375000000000000E+000 0.375000000000000E+000 0.000000000000000E+000
 0.341600259444201E+000 0.531250000000000E+000 0.000000000000000E+000
 0.337040360926244E+000 0.581802448479955E+000 0.000000000000000E+000
 0.313454820588085E+000 0.656240056545723E+000 0.000000000000000E+000
 0.244117968371280E+000 0.386059455330322E+000 0.000000000000000E+000
 0.316730626055850E+000 0.471195859600445E+000 0.000000000000000E+000
 0.343361747898823E+000 0.718361747898823E+000 0.000000000000000E+000
 0.387582141166944E+000 0.791354577928815E+000 0.000000000000000E+000
 0.394629419637968E+000 0.831652479273046E+000 0.000000000000000E+000
 0.359139968398398E+000 0.852480346691833E+000 0.000000000000000E+000
 0.449407668689709E+000 0.857876667231944E+000 0.000000000000000E+000
 0.504433083654504E+000 0.918355468709935E+000 0.000000000000000E+000
 0.438910290808154E+000 0.922698775777408E+000 0.000000000000000E+000
 0.487684842153978E+000 0.878322236197629E+000 0.000000000000000E+000
 0.750000000000000E+000 0.100000000000000E+001 0.000000000000000E+000
 0.429264219376497E+000 0.887875644335434E+000 0.000000000000000E+000
 0.297282757956014E+000 0.952697072250340E+000 0.000000000000000E+000
 0.308758340495749E+000 0.912972519020668E+000 0.000000000000000E+000
 0.353713070703707E+000 0.947478792032462E+000 0.000000000000000E+000
 0.343750000000000E+000 0.982091257636542E+000 0.000000000000000E+000
 0.437500000000000E+000 0.100000000000000E+001 0.000000000000000E+000
 0.386196294810884E+000 0.916319687483247E+000 0.000000000000000E+000
[...]
CELL_DATA         4076
SCALARS tdens double 1
LOOKUP_TABLE default
 0.193402332596840E-008
 0.229690796099532E-008
 0.288776730133547E-008
 0.235897160734882E-008
 0.124379351958659E-005
 0.651949407124062E-006
 0.655399787331463E-006
 0.702580634419778E-006
 0.195819804329708E+000
 0.671369803011699E+000
 0.119982156978983E+000
 0.250659433744088E+000
 0.206857044457253E-008
 0.306410566448320E-008
 0.276307913184318E-008
 0.247401248140348E-008
 0.370579763796253E-008
 0.615495177070415E-008
 0.521726116056022E-008
 0.460988902684382E-008
 0.694620254488605E-008
 0.106797113081372E-007
 0.853135990381462E-008
 0.850037815530914E-008
 0.248557297704473E-002
 0.236138737251576E-002
 0.249961725142909E-001
 0.152820610438385E-001
 0.191506090530588E-005
 0.519250401316316E-005
 0.351433622967439E-005
 0.373787137533096E-005
 0.211351216123966E-004
 0.716954863685290E-005
 0.136965182738777E-004
 0.145603603098848E-004
 0.427782941819234E-008
 0.437414401921513E-008
 0.457227559799330E-008
 0.443814147073473E-008
 0.845574342973448E-007
 0.636136606672282E-007
 0.595114515002798E-007
 0.666520067459580E-007
 0.427571591231888E-001
 0.100900359776201E-001
 0.127394186350398E-001
 0.878130983031367E-002
 0.274722827124194E-008
 0.292562946386654E-008
 0.406307415549943E-008
 0.304571842686340E-008
 0.163358269340590E-001
 0.204490981969848E-001
 0.149479471268112E+000
 0.173556911753047E-001
 0.198851930144392E-006
 0.138513994028875E-006
 0.139860368540375E-006
 0.150815550846864E-006
 0.486730014184826E-006
 0.316783789778184E-006
 0.221831340686900E-006
 0.321064176894191E-006
 0.430560783036426E-008
 0.528680211826389E-008
 0.794256312549831E-008
 0.563222799347327E-008
 0.333841866649513E-007
 0.268934488918362E-007
 0.182761788100343E-007
 0.261675090585930E-007
 0.132932168300964E-008
 0.127923157234365E-008
 0.251202275218520E-008
 0.169109477231760E-008
 0.115042911417218E-002
 0.139152685830108E-001
 0.257437448656289E-003
 0.753296902649471E-003
 0.389413611771047E-001
 0.764041082706728E-001
 0.123446867764935E-001
 0.232075232981268E-001
 0.411648999348617E-008
 0.419811184924396E-008
 0.444340815175187E-008
 0.427569676105828E-008
 0.125227194051291E-001
 0.552062316183548E-001
 0.791208240402509E-001
 0.452464248403911E-001
 0.533345955637766E-008
 0.417652146172497E-008
 0.474493348823412E-008
 0.458858627701103E-008
 0.120340343307159E-001
 0.294509489318446E-002
 0.647322071483498E-001
 0.202752742309729E-001
 0.229723111296935E-006
 0.112211152981508E-006
 0.107270620048667E-006
 0.123001941930699E-006
 0.784386585849328E-008
 0.150507472664626E-007
 0.848701880630162E-008
 0.967292915868892E-008
 0.855189603911380E+000
 0.204948435111269E+000
 0.360031529755353E+000
 0.454068093075657E+000
 0.609382394585661E-008
 0.754160133200945E-008
 0.513589363995039E-008
 0.611650367197403E-008
 0.838744866788394E-007
 0.210416753817217E-007
 0.337461838046789E-007
 0.346778507037518E-007
 0.100625127761686E-007
 0.201602356961342E-007
 0.143727330325349E-007
 0.140138831531355E-007
 0.224225986542297E-007
 0.149603534739404E-007
 0.153833759322074E-007
 0.169078635160027E-007
 0.293516266732097E-007
 0.730166199103283E-007
 0.136546224183144E-007
 0.258066290530072E-007
 0.184104715172144E-007
 0.268845213947013E-007
 0.355839598255431E-007
 0.257558004600630E-007
 0.474452314809941E-008
 0.396598984666264E-008
 0.158272633802464E-008
 0.238314524110566E-008
 0.121710365438300E+000
 0.184165868910939E+000
 0.211992964316660E+000
 0.286208190882889E+000
 0.262320856830332E-007
 0.118329601125604E-007
 0.620604494835330E-007
 0.200874695028572E-007
 0.343725373186964E-008
 0.280317841328303E-008
 0.363455835775096E-008
 0.328568175989724E-008
 0.844203086521340E-008
 0.572830661959522E-008
 0.822188387401237E-008
 0.724710994184266E-008
 0.459730368506384E-008
 0.466454229031871E-008
 0.416749850544370E-008
 0.441373690485559E-008
 0.647641470360188E-008
 0.540696331785291E-008
 0.772895957196163E-008
 0.637400318972537E-008
 0.271851307117410E-007
 0.148195543261079E-007
 0.584646926786384E-007
 0.261119003534142E-007
 0.392714789925304E-008
 0.502623954759619E-008
 0.395552376169968E-008
 0.430436993032341E-008
 0.967431085683899E-009
 0.551352182470970E-009
 0.703759783037104E-009
 0.756873791904016E-009
 0.149189057778663E-006
 0.214282685925285E-006
 0.219172562298439E-006
 0.199911480741104E-006
 0.124759308825610E-008
 0.203399303079308E-008
 0.230383387819233E-008
 0.177480153778830E-008
 0.368957422673240E-005
 0.502312688674040E-005
 0.122509740451724E-005
 0.368776290165985E-005
 0.181927562577562E-006
 0.503631345881084E-007
 0.227683915819009E-006
 0.131828865178578E-006
 0.824364804415680E-008
 0.106767527110878E-007
 0.166273433471204E-007
 0.111455859808151E-007
 0.590886272046699E-008
 0.513740896273104E-008
 0.369249441486377E-008
 0.483047234271345E-008
 0.669445296856355E-008
 0.773330065977212E-008
 0.107286391873480E-007
 0.817710598728919E-008
 0.329544770660304E-008
 0.280848628376698E-008
 0.254032079657131E-008
 0.275742673490925E-008
 0.137974548690892E+000
 0.745666814759703E-001
 0.231809879906896E+000
 0.169361728657769E+000
 0.344592001891517E-008
 0.384485195028852E-008
 0.538714968421914E-008
 0.416991778591876E-008
 0.233449892064548E-008
 0.182336544165783E-008
 0.213021791838175E-008
 0.215988303949101E-008
 0.235323495189688E-005
 0.401710046120599E-005
 0.550062401320443E-006
 0.106214225970942E-005
 0.110672756174870E-007
 0.132017941942306E-007
 0.893098443409563E-008
 0.110392446933231E-007
 0.441806808399364E-008
 0.595169712512828E-008
 0.621273709870620E-008
 0.536751823635554E-008
 0.136664375633976E-007
 0.955556508950092E-008
 0.175058345064822E-007
 0.132540115920048E-007
 0.425319764132447E-008
 0.281149255048602E-008
 0.303676514073406E-008
 0.335360267053107E-008
 0.115277769758142E-008
 0.194219887723342E-008
 0.158684341324796E-008
 0.153430073414106E-008
 0.691191633164161E-007
 0.153765441912962E-006
 0.126902262501889E-006
 0.126742616992224E-006
 0.406383701886184E-007
 0.555913410739122E-007
 0.960605358619925E-007
 0.547441374081671E-007
 0.510618050323790E-005
 0.772563895335187E-005
 0.181104562250884E-005
 0.403054909556825E-005
 0.108622685219888E-001
 0.485865331484932E-001
 0.248341379531130E-002
 0.181703393930604E-001
 0.368151018492498E-006
 0.228626353402979E-006
 0.602703371162463E-006
 0.394999724314059E-006
 0.837346781511216E-008
 0.118045641190908E-007
 0.117063100414339E-007
 0.106888030586131E-007
 0.434181732433144E-007
 0.138545247157280E-006
 0.582265752304584E-007
 0.662705330078338E-007
 0.960098447652817E-006
 0.458870254608725E-006
 0.206523928007759E-005
 0.113375351112421E-005
 0.211375866462030E-008
 0.246004812365693E-008
 0.268706250030573E-008
 0.241017306835176E-008
 0.714019901664002E-008
 0.519524376785734E-008
 0.526972662508464E-008
 0.579228176344999E-008
 0.410689414222777E-008
 0.387330768945331E-008
 0.330304581487288E-008
 0.372073333753857E-008
 0.693423421799676E-008
 0.508629461369760E-008
 0.489645919808413E-008
 0.553605678402806E-008
 0.167592668140684E-008
 0.247000435942840E-008
 0.223109709690677E-008
 0.206048983409259E-008
 0.975358621219202E-009
 0.141847376114568E-008
 0.121986094775831E-008
 0.112004542292282E-008
 0.248152113056428E-006
 0.292728763916282E-006
 0.690959479843971E-006
 0.300838771621835E-006
 0.539280597096745E-007
 0.421771542990498E-007
 0.581395757282071E-007
 0.520012594444539E-007
 0.148620410066731E-007
 0.228056645314715E-007
 0.138567586166571E-007
 0.164198059438212E-007
 0.311419124827922E-007
 0.167490458619518E-007
 0.168921839622376E-007
 0.193629524563422E-007
 0.233413389875813E-005
 0.676517638930490E-006
 0.109743051288765E-005
 0.115006251578797E-005
 0.335211554297408E-006
 0.652012800134644E-006
 0.239678414253294E-006
 0.309571851009685E-006
 0.219848218563968E-004
 0.141811998506569E-003
 0.846589500004228E-004
 0.108944585332833E-003
 0.397515262613629E-006
 0.512908910162662E-006
 0.281587074929144E-006
 0.371393055462287E-006
 0.465219301824711E-005
 0.179605688400631E-005
 0.760827441689456E-005
 0.389906783683675E-005
 0.190950068301489E-006
 0.119020350990565E-006
 0.240682032189587E-006
 0.195865222826893E-006
 0.861372537800671E-007
 0.100373768390025E-006
 0.151967286732139E-006
 0.102561694803746E-006
 0.910800728816670E-007
 0.714792120375282E-007
 0.412047627581252E-007
 0.717125706116544E-007
 0.830350560852904E-003
 0.178591801879998E+000
 0.662186890107929E+001
 0.161353654853633E+000
 0.375293038037749E-001
 0.280307880247045E-002
 0.577679139993886E-001
 0.327672902925855E-001
 0.122481351204484E-007
 0.123242708833154E-007
 0.390187109529674E-007
 0.160354539860849E-007
 0.292491100333350E-008
 0.276243294113377E-008
 0.356551835335533E-008
 0.308943875817115E-008
 0.125832720290691E+000
 0.177706259305310E+000
 0.113593334114769E+000
 0.117052008564715E+000
 0.319850946329770E-002
 0.253122979593487E-002
 0.332588309474656E-001
 0.138299608314463E-001
 0.235821854110011E-002
 0.225558969033305E-001
 0.231886626987651E-002
 0.126975681340656E-001
 0.573197999368121E-001
 0.120309854293755E-001
 0.468213691453951E-001
 0.197448720423119E-001
 0.279709999237106E-001
 0.213451694349863E-001
 0.153232739038512E+000
 0.168366868171927E-001
 0.187120320205614E-001
 0.426288599565921E-001
 0.558909478477477E-001
 0.135997581756478E-001
 0.740705404763043E-008
 0.103626213532181E-007
 0.701663741188678E-008
 0.804054847009322E-008
 0.115051864626326E-007
 0.728012232735347E-008
 0.116803672029065E-007
 0.102331387401900E-007
 0.329821640543117E-008
 0.494550825957088E-008
 0.548806030028257E-008
 0.452094647155385E-008
 0.295450241827767E-008
 0.283614012830149E-008
 0.474962301242035E-008
 0.349325880875723E-008
 0.565719596702276E-009
 0.981962065350632E-009
 0.718970169322861E-009
 0.769976943415960E-009
 0.226863688422723E-008
 0.153087551614950E-008
 0.168540210640312E-008
 0.182648200585436E-008
 0.101938693395811E-008
 0.128983918241757E-008
 0.180572647816733E-008
 0.131648953637344E-008
 0.561722324720485E-009
 0.145873330345749E-009
 0.395094468356396E-009
 0.323435367177571E-009
 0.519529811947306E-009
 0.373184254435537E-009
 0.134922398268665E-009
 0.290635899643417E-009
 0.260705236565225E-007
 0.168239090538464E-007
 0.249857609358300E-007
 0.230256107760849E-007
 0.662733748786148E-008
 0.103971664000720E-007
 0.739535123999486E-008
 0.785861312937280E-008
 0.105639032952321E-003
 0.188556527479457E-004
 0.119975979870955E-004
 0.206705168363075E-004
 0.152701280881534E+000
 0.325060887980116E+000
 0.290921614750285E+000
 0.195310472820974E+000
 0.301797376521948E-005
 0.849301417735926E-005
 0.483871600446812E-005
 0.470896865603466E-005
 0.289481363984643E-007
 0.270951756282300E-007
 0.198724860725904E-007
 0.241037422904370E-007
 0.786945046433832E-006
 0.330188670551933E-006
 0.596831380382197E-006
 0.598664357680525E-006
 0.479498716308994E-007
 0.570681510734366E-007
 0.409752711010080E-007
 0.479578886151153E-007
 0.297953651992124E-009
 0.424840229719624E-009
 0.113733803941789E-009
 0.283067623944426E-009
 0.513895149365312E-009
 0.912253415374344E-009
 0.630735858948618E-009
 0.629796690231753E-009
 0.252928516593337E-006
 0.115768939271317E-006
 0.168581851396202E-006
 0.158984879081150E-006
 0.417240439067614E-007
 0.667004000817903E-007
 0.697863283000943E-007
 0.615961859169228E-007
 0.158556466315246E-008
 0.103677985586550E-008
 0.160986836094808E-008
 0.139574111991444E-008
 0.153860600449916E-007
 0.667441841793271E-008
 0.928256404610773E-008
 0.102362746425448E-007
 0.325646759773820E-008
 0.404985675152549E-008
 0.425759799373049E-008
 0.373187722350346E-008
 0.440440638527720E-008
 0.383685027010861E-008
 0.501159012166206E-008
 0.443711473034400E-008
 0.599667282319713E-007
 0.365614149192351E-007
 0.355438371374383E-007
 0.400220824089815E-007
 0.491257901342967E-007
 0.400932213961680E-007
 0.667593139547247E-007
 0.499483317634521E-007
 0.138359412529204E-006
 0.901445353215671E-007
 0.150883349832246E-006
 0.133690302214557E-006
 0.273487591829793E-007
 0.177571485933498E-007
 0.212799023667086E-007
 0.224573496777222E-007
 0.310767289638308E-007
 0.384002112366287E-007
 0.250729519576381E-007
 0.311598110868958E-007
 0.152339258068500E-007
 0.241910774482955E-007
 0.203152547915349E-007
 0.192313820092503E-007
 0.111832567675105E-007
 0.107826319474638E-007
 0.777577968786553E-008
 0.982599079561650E-008
 0.607467303322078E-008
 0.378734187024150E-008
 0.550470191671792E-008
 0.498711190647913E-008
 0.373780610466328E-008
 0.563840252786761E-008
 0.551808640113369E-008
 0.455520762057065E-008
 0.674423801647804E-006
 0.241466548970734E-005
 0.862640676781013E-006
 0.874299512919557E-006
 0.252694374892276E-004
 0.140674485123758E-003
 0.107856392596256E-004
 0.408254934016194E-004
 0.184977289812079E-002
 0.984091943444194E-002
 0.972484331999845E-002
 0.489473417390761E-002
 0.155369490063164E+001
 0.201231557493309E+000
 0.115602836581854E+001
 0.150507893994493E+001
 0.814531830801557E-001
 0.579632671350240E-001
 0.554415092283691E-001
 0.770691592194083E-001
 0.388731413081994E+000
 0.154151931896616E+000
 0.175873778180182E+000
 0.220839782764302E+000
 0.771119008613158E-005
 0.149479446696635E-004
 0.439092863873998E-004
 0.128723193997400E-004
 0.488977224221722E-005
 0.173754391975243E-005
 0.123931324281353E-005
 0.172940728750447E-005
 0.545684118932115E-007
 0.593975324894676E-007
 0.491089345780649E-007
 0.539664289496310E-007
 0.329543920429932E-008
 0.440238780742348E-008
 0.546240808631213E-008
 0.399284479129383E-008
 0.108044243651402E-005
 0.149220593370387E-005
 0.249628115822541E-005
 0.140825922789398E-005
 0.339307680987372E-007
 0.260358303351961E-007
 0.386935267076232E-007
 0.326603489130835E-007
 0.229558294722840E-008
 0.191519088483816E-008
 0.197184694501294E-008
 0.200759593919664E-008
 0.383244347772613E-008
 0.286029340416097E-008
 0.337054242255855E-008
 0.328918916585920E-008
 0.185637961175423E-009
 0.494352832436540E-009
 0.534698421884801E-009
 0.362207455101325E-009
 0.121324261502842E-008
 0.738752063942264E-009
 0.726722000262252E-009
 0.915639264001524E-009
 0.746211013971396E-008
 0.161020403899390E-007
 0.989167421608054E-008
 0.974467206098833E-008
 0.338520112302465E-008
 0.466937717523715E-008
 0.358906856207642E-008
 0.386054140969024E-008
 0.289877962322935E-008
 0.249570066184303E-008
 0.219306287920532E-008
 0.253678497123749E-008
 0.341816552576337E-001
 0.721405492937708E-001
 0.666254869507200E-001
 0.433404463120267E-001
 0.185365106027242E-008
 0.250646768517961E-008
 0.196892660727797E-008
 0.212332050207858E-008
 0.227340808649362E-008
 0.285065859984362E-008
 0.304703236801173E-008
 0.266578171058576E-008
 0.152270250275674E-007
 0.134102884176456E-007
 0.178974178586294E-007
 0.152953465280935E-007
 0.162309280950107E-008
 0.100048847501323E-008
 0.147936323173867E-008
 0.128262455284376E-008
 0.708246609798452E-008
 0.973204837814390E-008
 0.752003946730085E-008
 0.792540855709242E-008
 0.331541058638403E-004
 0.668409791833111E-004
 0.729540219109137E-003
 0.366769789173686E-004
 0.113631223633807E+000
 0.100004471865785E+000
 0.620364403213414E-001
 0.100261300989003E+000
 0.797297521319984E-003
 0.169176398503118E-002
 0.218955091203094E-001
 0.135395166210236E-002
 0.114278564723243E-001
 0.248190431179366E-001
 0.763212238559755E-002
 0.531074547150358E-002
 0.360501954102543E-001
 0.255960390518916E-001
 0.142895511318437E-001
 0.227748004262122E-001
 0.115170448838822E+000
 0.744556953383090E-001
 0.165507752739693E+000
 0.107950622275349E+000
 0.212169024207035E+001
 0.509477004459148E+000
 0.248517210331883E+001
 0.180871582480250E+001
 0.937896133588172E-009
 0.741985235252188E-009
 0.125377029991045E-008
 0.932389380934334E-009
 0.470640812646690E+000
 0.342842459974250E+000
 0.341879494683138E+000
 0.406798606557444E+000
 0.466837957949230E-001
 0.365055331343416E-001
 0.354055592103011E-001
 0.592492682827441E-001
 0.310948200738662E-006
 0.547086534310050E-006
 0.405694243607585E-006
 0.408942560702909E-006
 0.690645438775503E-006
 0.379296094685832E-006
 0.250683504691883E-006
 0.396211978833611E-006
 0.225322789660403E-006
 0.258014203748917E-006
 0.319832542557331E-006
 0.259919541757253E-006
 0.410413911995187E-007
 0.392991628737395E-007
 0.499297034786731E-007
 0.421092841680551E-007
 0.127050775269193E-005
 0.120768406820777E-005
 0.575035563880618E-006
 0.116724619897216E-005
 0.141741586858476E-008
 0.134542007467896E-008
 0.881881400333732E-009
 0.118035695849028E-008
 0.106477688742394E-008
 0.127434439613119E-008
 0.791246473794870E-009
 0.106021202277542E-008
 0.395765962527254E-009
 0.286289713600472E-009
 0.957186416230825E-010
 0.194083569545985E-009
 0.567539449286142E-009
 0.888964410602018E-009
 0.975222946412279E-009
 0.792767478227064E-009
 0.180515452093979E-008
 0.287267107846794E-008
 0.182570970444392E-008
 0.203204702906815E-008
 0.341166277496417E-008
 0.352038438744228E-008
 0.185620964279790E-008
 0.261895412825861E-008
 0.443023087521984E-001
 0.778186709501898E-001
 0.413066489726162E-001
 0.602166457479942E-001
 0.732233979616424E-001
 0.160938456521212E-001
 0.300458542376076E-001
 0.372549993768795E-001
 0.168836361349977E-001
 0.474190002951751E-001
 0.476249059122921E-001
 0.212102353433974E-001
 0.281346938533833E-001
 0.305380796322029E-001
 0.120831080690464E-001
 0.200973702182046E-001
 0.198162524967925E-002
 0.185715593102411E-002
 0.173397720633472E-001
 0.870147011300010E-002
 0.165159875001335E-001
 0.230005540163917E-002
 0.224575586361849E-002
 0.113493659346176E-001
 0.161346913378028E+000
 0.275948848272045E+000
 0.744761718351016E+000
 0.923930207820538E-001
 0.196331433608918E+000
 0.901422168135625E-001
 0.106070936281458E+000
 0.764805869759721E-001
 0.114430979456680E-001
 0.376727005985352E-001
 0.669279781693858E-002
 0.541413021200397E-001
 0.879089537571754E-001
 0.597130807506519E-001
 0.824441116190532E-001
 0.851347611243200E-001
 0.694529256706908E-001
 0.788949431519675E-001
 0.106329990156216E+000
 0.661864005037053E-001
 0.322383652333997E-001
 0.268961460525417E-001
 0.106696467408690E+000
 0.271953091912526E-001
 0.791344076892313E-001
 0.670708716689173E-001
 0.718444400367342E-001
 0.609165419218435E-001
 0.235179677693446E+000
 0.351011184659651E+000
 0.256668849567820E+000
 0.283086390562598E+000
 0.610594928060595E-001
 0.199425076881812E-001
 0.681015588360308E-001
 0.302053091485545E-001
 0.251185908161803E+001
 0.702806388325906E+000
 0.222136884387046E+001
 0.180366748506950E+001
 0.784530851618254E-001
 0.110632712178172E+000
 0.591804766695696E-001
 0.106332610481109E+000
 0.180664445684754E+000
 0.205342763966603E+000
 0.126672643136384E+000
 0.155973355618450E+000
 0.336786195101271E-001
 0.673220217439064E-001
 0.291422847818536E-001
 0.956858153103615E-001
 0.188858694646917E+000
 0.774244605295015E-001
 0.841771567694886E-001
 0.143106577485225E+000
 0.181807113342989E-001
 0.976707608015003E-002
 0.126932091302604E-001
 0.355071304996453E-002
 0.539207316159690E-001
 0.155818039863597E+000
 0.791361887200871E-001
 0.348952007091633E-001
 0.593342487324896E+000
 0.485014481739109E+000
 0.490234428967534E+000
 0.532418773025959E+000
 0.222138715191361E+000
 0.128172115361573E+000
 0.100697821620218E+000
 0.114890876105250E+000
 0.315160285367093E+000
 0.483913223406032E+000
 0.276443051203500E+000
 0.270319469468664E+000
 0.402005057874167E+000
 0.215458815414564E+000
 0.237775722495035E+001
 0.116298175906740E+001
 0.727137414499144E-001
 0.490030623128444E-001
 0.110754391869465E+000
 0.894426764533456E-001
 0.329295079631171E-001
 0.472716361432408E-001
 0.127091725948239E+000
 0.476786903331901E-001
 0.791969045368189E-001
 0.580563909907101E-001
 0.120921073108935E+000
 0.815379567073099E-001
 0.390005546862160E+000
 0.264032739146657E+001
 0.319842090373004E+000
 0.203554106139291E+000
 0.194754712604432E-001
 0.624704027822380E-001