# vtk DataFile Version 3.0
Unstructured Grid
ASCII
DATASET UNSTRUCTURED_GRID
FIELD FieldData 1
TIME 1 1 float
  0.154184E+01
POINTS         2102 double
 0.000000000000000E+000 0.000000000000000E+000 0.000000000000000E+000
 0.100000000000000E+001 0.000000000000000E+000 0.000000000000000E+000
 0.100000000000000E+001 0.100000000000000E+001 0.000000000000000E+000
 0.000000000000000E+000 0.100000000000000E+001 0.000000000000000E+000
 0.125000000000000E+000 0.250000000000000E+000 0.000000000000000E+000
 0.375000000000000E+000 0.250000000000000E+000 0.000000000000000E+000
 0.375000000000000E+000 0.750000000000000E+000 0.000000000000000E+000
 0.125000000000000E+000 0.750000000000000E+000 0.000000000000000E+000
 0.625000000000000E+000 0.250000000000000E+000 0.000000000000000E+000
 0.875000000000000E+000 0.250000000000000E+000 0.000000000000000E+000
 0.875000000000000E+000 0.750000000000000E+000 0.000000000000000E+000
 0.625000000000000E+000 0.750000000000000E+000 0.000000000000000E+000
 0.100000000000000E+001 0.500000000000000E+000 0.000000000000000E+000
 0.000000000000000E+000 0.500000000000000E+000 0.000000000000000E+000
 0.500000000000000E+000 0.000000000000000E+000 0.000000000000000E+000
 0.125000000000000E+000 0.500000000000000E+000 0.000000000000000E+000
 0.000000000000000E+000 0.750000000000000E+000 0.000000000000000E+000
 0.000000000000000E+000 0.250000000000000E+000 0.000000000000000E+000
 0.000000000000000E+000 0.875000000000000E+000 0.000000000000000E+000
 0.000000000000000E+000 0.125000000000000E+000 0.000000000000000E+000
 0.000000000000000E+000 0.812500000000000E+000 0.000000000000000E+000
 0.625000000000000E-001 0.812500000000000E+000 0.000000000000000E+000
 0.125000000000000E+000 0.375000000000000E+000 0.000000000000000E+000
 0.000000000000000E+000 0.375000000000000E+000 0.000000000000000E+000
 0.125000000000000E+000 0.625000000000000E+000 0.000000000000000E+000
 0.312500000000000E-001 0.781250000000000E+000 0.000000000000000E+000
 0.000000000000000E+000 0.625000000000000E+000 0.000000000000000E+000
 0.781250000000000E-001 0.765625000000000E+000 0.000000000000000E+000
 0.312500000000000E-001 0.843750000000000E+000 0.000000000000000E+000
 0.500000000000000E+000 0.100000000000000E+001 0.000000000000000E+000
 0.852352799227800E-001 0.850726351351351E+000 0.000000000000000E+000
 0.531250000000000E-001 0.896875000000000E+000 0.000000000000000E+000
 0.128125000000000E+000 0.862500000000000E+000 0.000000000000000E+000
 0.125000000000000E+000 0.100000000000000E+001 0.000000000000000E+000
 0.250000000000000E+000 0.750000000000000E+000 0.000000000000000E+000
 0.000000000000000E+000 0.937500000000000E+000 0.000000000000000E+000
 0.250000000000000E+000 0.100000000000000E+001 0.000000000000000E+000
 0.117915518486872E+000 0.805415518486872E+000 0.000000000000000E+000
 0.201656717908302E+000 0.819893736067327E+000 0.000000000000000E+000
 0.181985294117647E-001 0.906250000000000E+000 0.000000000000000E+000
 0.157158578892515E+000 0.827852167423944E+000 0.000000000000000E+000
 0.187500000000000E+000 0.750000000000000E+000 0.000000000000000E+000
 0.190370748034901E+000 0.885171153579592E+000 0.000000000000000E+000
 0.173219498992632E+000 0.789273026175030E+000 0.000000000000000E+000
 0.125000000000000E+000 0.687500000000000E+000 0.000000000000000E+000
 0.000000000000000E+000 0.687500000000000E+000 0.000000000000000E+000
 0.441080729166667E-001 0.732584635416667E+000 0.000000000000000E+000
 0.625000000000000E-001 0.100000000000000E+001 0.000000000000000E+000
 0.324539302647226E+000 0.874753539998500E+000 0.000000000000000E+000
 0.138239725210285E+000 0.931515391482052E+000 0.000000000000000E+000
 0.218750000000000E+000 0.780050991479902E+000 0.000000000000000E+000
 0.282595248614805E+000 0.815169690490412E+000 0.000000000000000E+000
 0.241894668607517E+000 0.813568527927710E+000 0.000000000000000E+000
 0.259830219207979E+000 0.875750318441249E+000 0.000000000000000E+000
 0.375000000000000E+000 0.687500000000000E+000 0.000000000000000E+000
 0.894072114981556E-001 0.718750000000000E+000 0.000000000000000E+000
 0.156250000000000E+000 0.718750000000000E+000 0.000000000000000E+000
 0.171875000000000E+000 0.671875000000000E+000 0.000000000000000E+000
 0.208984375000000E+000 0.705078125000000E+000 0.000000000000000E+000
 0.187500000000000E+000 0.100000000000000E+001 0.000000000000000E+000
 0.100742481264918E+000 0.901762004578004E+000 0.000000000000000E+000
 0.897955050140944E-001 0.954063112745616E+000 0.000000000000000E+000
 0.454072994832874E-001 0.943019090840959E+000 0.000000000000000E+000
 0.312500000000000E-001 0.978320013898389E+000 0.000000000000000E+000
 0.151802024837252E+000 0.894278844061106E+000 0.000000000000000E+000
 0.312500000000000E+000 0.750000000000000E+000 0.000000000000000E+000
 0.349824395642442E+000 0.812398913150492E+000 0.000000000000000E+000
 0.291845278223558E+000 0.853213315943310E+000 0.000000000000000E+000
 0.312500000000000E+000 0.100000000000000E+001 0.000000000000000E+000
 0.221920040905101E+000 0.857011448773234E+000 0.000000000000000E+000
 0.610875609743251E-001 0.656250000000000E+000 0.000000000000000E+000
 0.575501251937821E-001 0.695518883967223E+000 0.000000000000000E+000
 0.229414059980049E+000 0.912264575939035E+000 0.000000000000000E+000
 0.267409472953924E+000 0.912989160289387E+000 0.000000000000000E+000
 0.247617500704634E+000 0.954276202159214E+000 0.000000000000000E+000
 0.186156415773925E+000 0.932922904662876E+000 0.000000000000000E+000
 0.161177138586098E+000 0.966975254724362E+000 0.000000000000000E+000
 0.281250000000000E+000 0.775106270475024E+000 0.000000000000000E+000
 0.232477697233870E+000 0.641481728091557E+000 0.000000000000000E+000
 0.375000000000000E+000 0.500000000000000E+000 0.000000000000000E+000
 0.343750000000000E+000 0.773669964712841E+000 0.000000000000000E+000
 0.500000000000000E+000 0.836710937419870E+000 0.000000000000000E+000
 0.625000000000000E-001 0.460493798860530E+000 0.000000000000000E+000
 0.225506433867106E-001 0.656250000000000E+000 0.000000000000000E+000
 0.625000000000000E-001 0.578156919744020E+000 0.000000000000000E+000
 0.100683627400278E+000 0.656250000000000E+000 0.000000000000000E+000
 0.808855941873017E-001 0.617548766045778E+000 0.000000000000000E+000
 0.396623706279028E-001 0.612802597169787E+000 0.000000000000000E+000
 0.000000000000000E+000 0.562500000000000E+000 0.000000000000000E+000
 0.209099082089092E+000 0.966015356758449E+000 0.000000000000000E+000
 0.208176344887401E+000 0.668642063067022E+000 0.000000000000000E+000
 0.375000000000000E+000 0.625000000000000E+000 0.000000000000000E+000
 0.281250000000000E+000 0.727693574222975E+000 0.000000000000000E+000
 0.410395729589754E-001 0.531250000000000E+000 0.000000000000000E+000
 0.243044505147503E+000 0.715165207256627E+000 0.000000000000000E+000
 0.427668699245901E+000 0.807527989856971E+000 0.000000000000000E+000
 0.375000000000000E+000 0.100000000000000E+001 0.000000000000000E+000
 0.396556497766215E+000 0.872516538744482E+000 0.000000000000000E+000
 0.125000000000000E+000 0.562500000000000E+000 0.000000000000000E+000
 0.386020873411304E-001 0.491878123024719E+000 0.000000000000000E+000
 0.837862679783012E-001 0.496009823563561E+000 0.000000000000000E+000
 0.181474703505393E+000 0.615400296494607E+000 0.000000000000000E+000
 0.156642498481761E+000 0.640232501518239E+000 0.000000000000000E+000
 0.148741293073547E+000 0.593750000000000E+000 0.000000000000000E+000
 0.198570897886273E+000 0.531250000000000E+000 0.000000000000000E+000
 0.186280074550956E+000 0.572564766212389E+000 0.000000000000000E+000
 0.261115628859886E+000 0.572342169151976E+000 0.000000000000000E+000
 0.223664380580028E+000 0.561200712513239E+000 0.000000000000000E+000
 0.260913847788851E+000 0.504504802962447E+000 0.000000000000000E+000
 0.220403809070327E+000 0.602182935170118E+000 0.000000000000000E+000
 0.280942357260745E+000 0.670965807217831E+000 0.000000000000000E+000
 0.303530083216233E+000 0.699208028468857E+000 0.000000000000000E+000
 0.244300952472090E+000 0.677895460994186E+000 0.000000000000000E+000
 0.278676255979588E+000 0.620116626474426E+000 0.000000000000000E+000
 0.375000000000000E+000 0.562500000000000E+000 0.000000000000000E+000
 0.294783395930685E+000 0.587081428049465E+000 0.000000000000000E+000
 0.296390010773290E+000 0.538188197482711E+000 0.000000000000000E+000
 0.326808615275446E+000 0.623140446700340E+000 0.000000000000000E+000
 0.375000000000000E+000 0.375000000000000E+000 0.000000000000000E+000
 0.341600259444201E+000 0.531250000000000E+000 0.000000000000000E+000
 0.337040360926244E+000 0.581802448479955E+000 0.000000000000000E+000
 0.313454820588085E+000 0.656240056545723E+000 0.000000000000000E+000
 0.244117968371280E+000 0.386059455330322E+000 0.000000000000000E+000
 0.316730626055850E+000 0.471195859600445E+000 0.000000000000000E+000
 0.343361747898823E+000 0.718361747898823E+000 0.000000000000000E+000
 0.387582141166944E+000 0.791354577928815E+000 0.000000000000000E+000
 0.394629419637968E+000 0.831652479273046E+000 0.000000000000000E+000
 0.359139968398398E+000 0.852480346691833E+000 0.000000000000000E+000
 0.449407668689709E+000 0.857876667231944E+000 0.000000000000000E+000
 0.504433083654504E+000 0.918355468709935E+000 0.000000000000000E+000
 0.438910290808154E+000 0.922698775777408E+000 0.000000000000000E+000
 0.487684842153978E+000 0.878322236197629E+000 0.000000000000000E+000
 0.750000000000000E+000 0.100000000000000E+001 0.000000000000000E+000
 0.429264219376497E+000 0.887875644335434E+000 0.000000000000000E+000
 0.297282757956014E+000 0.952697072250340E+000 0.000000000000000E+000
 0.308758340495749E+000 0.912972519020668E+000 0.000000000000000E+000
 0.353713070703707E+000 0.947478792032462E+000 0.000000000000000E+000
 0.343750000000000E+000 0.982091257636542E+000 0.000000000000000E+000
 0.437500000000000E+000 0.100000000000000E+001 0.000000000000000E+000
 0.386196294810884E+000 0.916319687483247E+000 0.000000000000000E+000
[...]
CELL_DATA         4076
SCALARS tdens double 1
LOOKUP_TABLE default
 0.357652598783360E-002
 0.418781132442367E-002
 0.499781593918955E-002
 0.427253857831729E-002
 0.599942058569646E-001
 0.505511750211235E-001
 0.496001270903104E-001
 0.529786891629964E-001
 0.177259190228763E+000
 0.191883603907362E+000
 0.212225177082583E+000
 0.194553101984440E+000
 0.391300157163172E-002
 0.516716305102146E-002
 0.500043151312078E-002
 0.455388160722306E-002
 0.622974763385114E-002
 0.779986608533705E-002
 0.780274329655263E-002
 0.716422645725193E-002
 0.779523966802787E-002
 0.929282545735481E-002
 0.896526162392626E-002
 0.855654937455921E-002
 0.770640044099229E-001
 0.636186105544035E-001
 0.697486514889381E-001
 0.742143658563615E-001
 0.579107842910512E-001
 0.712481475507911E-001
 0.665841326165953E-001
 0.654056723079673E-001
 0.837351560225912E-001
 0.729636431777463E-001
 0.792163187320881E-001
 0.784430403468044E-001
 0.541525081087702E-002
 0.585190890927358E-002
 0.579004472553941E-002
 0.571392864522789E-002
 0.231659714914814E-001
 0.215931688833246E-001
 0.204323561859352E-001
 0.217804090200292E-001
 0.191213832427515E+000
 0.169586825371200E+000
 0.156046007815375E+000
 0.175160337943456E+000
 0.328977362416640E-002
 0.364289664604783E-002
 0.451340672592323E-002
 0.368131529433381E-002
 0.993384634852228E-001
 0.111064858804921E+000
 0.110774264100244E+000
 0.109225143436958E+000
 0.336958140878114E-001
 0.305877829262882E-001
 0.308539279387499E-001
 0.318077178485463E-001
 0.382948818213647E-001
 0.331668118158740E-001
 0.293665791633130E-001
 0.332332770674990E-001
 0.663097808022216E-002
 0.736530434134927E-002
 0.889904121323200E-002
 0.771919071620911E-002
 0.132482724453697E-001
 0.121698977486208E-001
 0.100043504173897E-001
 0.114933482270145E-001
 0.243934282843604E-002
 0.232559182441786E-002
 0.410701791983794E-002
 0.300202243860265E-002
 0.118030399012122E+000
 0.128795738283528E+000
 0.105925147745605E+000
 0.115462201516117E+000
 0.626438637468747E-001
 0.439388490971993E-001
 0.585898335742403E-001
 0.522695871620502E-001
 0.560533894852730E-002
 0.612496178931917E-002
 0.605730414586573E-002
 0.595578277576768E-002
 0.526800129907136E-001
 0.391059211278748E-001
 0.523611938138877E-001
 0.463291391778964E-001
 0.620130313342459E-002
 0.552282702037812E-002
 0.612873974984923E-002
 0.577766802518974E-002
 0.322196342586323E-001
 0.498755851817288E-001
 0.352401034918048E-001
 0.389312017008368E-001
 0.286903509479191E-001
 0.226331609887808E-001
 0.218818348798301E-001
 0.241576313626217E-001
 0.706005929620350E-002
 0.931057539053770E-002
 0.696238637020760E-002
 0.779266096631289E-002
 0.953853984065394E-001
 0.111009556234219E+000
 0.921056910945224E-001
 0.106842679982671E+000
 0.842761348154214E-002
 0.921339833018355E-002
 0.760275545865205E-002
 0.829770468593483E-002
 0.163257428433915E-001
 0.113884874540586E-001
 0.125972666967450E-001
 0.131416587281798E-001
 0.826550734983307E-002
 0.106842354250787E-001
 0.983217999775909E-002
 0.936163434920161E-002
 0.109368057747029E-001
 0.910311898878309E-002
 0.898362179794293E-002
 0.976986393219314E-002
 0.141635198776680E-001
 0.166694803121023E-001
 0.116490566065640E-001
 0.137629238918315E-001
 0.987133954647197E-002
 0.116087342107854E-001
 0.131370793745210E-001
 0.115331230459787E-001
 0.465350724236051E-002
 0.418454200858252E-002
 0.290422449647790E-002
 0.380430940706215E-002
 0.120867099649761E+000
 0.118433941230725E+000
 0.120640829558243E+000
 0.121397554997033E+000
 0.145565149294603E-001
 0.110751957070414E-001
 0.167222647468049E-001
 0.136434054405999E-001
 0.444737362803299E-002
 0.380332535204467E-002
 0.480895466759040E-002
 0.434457757038018E-002
 0.872735902776726E-002
 0.759776631393645E-002
 0.920216204325038E-002
 0.836874212990934E-002
 0.670702416108783E-002
 0.640708218833897E-002
 0.627930955710675E-002
 0.643311412461588E-002
 0.684902167187001E-002
 0.659143489664526E-002
 0.788372057546043E-002
 0.707016716195589E-002
 0.121662256804381E-001
 0.103301416796091E-001
 0.154885864275852E-001
 0.122470378180094E-001
 0.511740648655692E-002
 0.576357601320284E-002
 0.488717927524080E-002
 0.535386497065505E-002
 0.140561472795651E-002
 0.876447498098569E-003
 0.113327975608891E-002
 0.117553288580738E-002
 0.319497355285142E-001
 0.354302746494973E-001
 0.353771692073984E-001
 0.340086553294982E-001
 0.187537631186707E-002
 0.263506941915160E-002
 0.304419017642197E-002
 0.243651724213603E-002
 0.633198782916723E-001
 0.694253784936833E-001
 0.501933024911957E-001
 0.604697622649701E-001
 0.234894817780902E-001
 0.146977616478718E-001
 0.208450778989128E-001
 0.192334329127800E-001
 0.755786208902129E-002
 0.887833111987035E-002
 0.100703218646559E-001
 0.871461734662504E-002
 0.555660693840294E-002
 0.489715595724774E-002
 0.404140282449655E-002
 0.471989844942477E-002
 0.568296327147299E-002
 0.635866089748876E-002
 0.744545550277881E-002
 0.652683870093292E-002
 0.417032635864132E-002
 0.349479526112365E-002
 0.344289094052738E-002
 0.357335684198305E-002
 0.334699764524990E-001
 0.340480861069358E-001
 0.463061958533492E-001
 0.395503374979986E-001
 0.391460384052011E-002
 0.451551975863159E-002
 0.531712086104543E-002
 0.465005397960809E-002
 0.300359161179405E-002
 0.255273400583207E-002
 0.297087640827412E-002
 0.292196314634750E-002
 0.299134758588411E-001
 0.463946787930591E-001
 0.306362583091233E-001
 0.355435392592115E-001
 0.895385123006850E-002
 0.102073768378453E-001
 0.801412881192230E-002
 0.901439103744791E-002
 0.514972038396602E-002
 0.623244330949395E-002
 0.604671332787542E-002
 0.564489279707141E-002
 0.862793954967183E-002
 0.737363098793818E-002
 0.100122590804208E-001
 0.849644864795155E-002
 0.420371379082327E-002
 0.315320567259742E-002
 0.339213602776692E-002
 0.363839789191754E-002
 0.179978116861481E-002
 0.276857331090728E-002
 0.231987010341907E-002
 0.227058494068153E-002
 0.178760499623890E-001
 0.239514790677106E-001
 0.230357377169979E-001
 0.214891647794911E-001
 0.141573754962513E-001
 0.157314296766014E-001
 0.199241125676260E-001
 0.165518955926828E-001
 0.617711954657221E-001
 0.742795274555794E-001
 0.535363462099604E-001
 0.619602802698129E-001
 0.312478174146772E-001
 0.335617476595178E-001
 0.477720165378581E-001
 0.371673707055283E-001
 0.342072505431727E-001
 0.287110892619967E-001
 0.389922825416192E-001
 0.339935092848088E-001
 0.662395509226485E-002
 0.798522024951602E-002
 0.814286515679209E-002
 0.749648784086622E-002
 0.139861816855680E-001
 0.212293557902639E-001
 0.158147819549072E-001
 0.168963986874412E-001
 0.439285878726132E-001
 0.336109970116523E-001
 0.487681419927387E-001
 0.423617909423434E-001
 0.410734151275250E-002
 0.468195933987293E-002
 0.507959447884397E-002
 0.462509342090997E-002
 0.786748075429373E-002
 0.670745496574008E-002
 0.710626279346674E-002
 0.723278063333182E-002
 0.645981010838873E-002
 0.623201388860763E-002
 0.587818255488412E-002
 0.621172955848280E-002
 0.858085429133169E-002
 0.724426115627479E-002
 0.726021260834930E-002
 0.774057640201380E-002
 0.218531694793371E-002
 0.297357164433989E-002
 0.269934208479994E-002
 0.252513742253964E-002
 0.153720312003185E-002
 0.208110435092750E-002
 0.174939131775532E-002
 0.167294720271313E-002
 0.318417078534522E-001
 0.329882406341650E-001
 0.433159184785092E-001
 0.351870636803641E-001
 0.205478045320624E-001
 0.180435302488234E-001
 0.201948084433973E-001
 0.195902870936971E-001
 0.938895219226520E-002
 0.117196322159973E-001
 0.943152600554036E-002
 0.102860402998841E-001
 0.122579242508260E-001
 0.922453028028592E-002
 0.931444042832545E-002
 0.103021213330331E-001
 0.571990798295877E-001
 0.409159047958362E-001
 0.474136561287136E-001
 0.475280022666498E-001
 0.295893719318012E-001
 0.384239995399232E-001
 0.277510681619323E-001
 0.312717250183127E-001
 0.879909549025572E-001
 0.100874909951300E+000
 0.105947769178679E+000
 0.980518930632708E-001
 0.349195599275074E-001
 0.382073933612786E-001
 0.321960289140133E-001
 0.350745787376651E-001
 0.656904873310622E-001
 0.547249810928592E-001
 0.736403781037641E-001
 0.650579763616471E-001
 0.290290627030822E-001
 0.243892219353616E-001
 0.308910082835347E-001
 0.277055241936909E-001
 0.220328580801018E-001
 0.223842860031626E-001
 0.263688422124579E-001
 0.237453997462927E-001
 0.208066483735953E-001
 0.189756805181440E-001
 0.150482863407914E-001
 0.178803106151572E-001
 0.596259131145484E+000
 0.599799018488634E+000
 0.731220363140265E+000
 0.669476647245096E+000
 0.104300443001915E+000
 0.115156156884376E+000
 0.120241357182358E+000
 0.116216895493786E+000
 0.996051165304620E-002
 0.106806371310184E-001
 0.144178968441025E-001
 0.115406357089109E-001
 0.541528653825432E-002
 0.512564558932904E-002
 0.609477422964581E-002
 0.560307047318822E-002
 0.978239805609464E-001
 0.926937192267640E-001
 0.719745963906203E-001
 0.802383085502592E-001
 0.211036648326669E-001
 0.152525550597053E-001
 0.256016453347204E-001
 0.192932320388812E-001
 0.817712855278217E-002
 0.150708591293601E-001
 0.106786884853537E-001
 0.965975533111785E-002
 0.251757220912747E-001
 0.143680682398268E-001
 0.266564157085966E-001
 0.215108404696498E-001
 0.116639831822920E+000
 0.106026225703476E+000
 0.122802472915283E+000
 0.116184112128637E+000
 0.609006173492862E-001
 0.584366306761779E-001
 0.672370360748906E-001
 0.600853599700050E-001
 0.616290785568690E-002
 0.765088273530882E-002
 0.623085495231335E-002
 0.666451066940451E-002
 0.785756777741931E-002
 0.604361413363270E-002
 0.793132565021517E-002
 0.713653540195001E-002
 0.363805737725920E-002
 0.473012235442582E-002
 0.512009342478418E-002
 0.434875486040801E-002
 0.357506643133433E-002
 0.324939840069984E-002
 0.461806023751434E-002
 0.392839236373220E-002
 0.907735944813750E-003
 0.141362350172613E-002
 0.115041909776851E-002
 0.118652866748093E-002
 0.283018919491704E-002
 0.204473537109249E-002
 0.232950649205358E-002
 0.244565245827751E-002
 0.154333248967711E-002
 0.176495156859741E-002
 0.233186097155885E-002
 0.182112967257499E-002
 0.949398543404197E-003
 0.280176133999182E-003
 0.679476098303577E-003
 0.572837110272906E-003
 0.892278777021096E-003
 0.638524209396575E-003
 0.258325623451131E-003
 0.510514033121603E-003
 0.126352134704224E-001
 0.100687626392738E-001
 0.119880092724146E-001
 0.113749537984796E-001
 0.554249830121435E-002
 0.723421292483747E-002
 0.596378286622196E-002
 0.630288990593134E-002
 0.916577786887326E-001
 0.803188714165876E-001
 0.736975343892775E-001
 0.820652791490585E-001
 0.431914542693709E-001
 0.570494573012208E-001
 0.547512064580040E-001
 0.475651041473268E-001
 0.633104213268632E-001
 0.740320850215123E-001
 0.679357495744508E-001
 0.683627977135305E-001
 0.154200637724670E-001
 0.154690370586213E-001
 0.129542085448200E-001
 0.145167537060500E-001
 0.463955805271210E-001
 0.349905131151826E-001
 0.413425111348260E-001
 0.404274796967944E-001
 0.176642629421330E-001
 0.195350432452039E-001
 0.172814383813814E-001
 0.180863249983060E-001
 0.583109108779261E-003
 0.854505457370151E-003
 0.226526089829216E-003
 0.557843329868249E-003
 0.991914647616483E-003
 0.173951441251128E-002
 0.125250573117868E-002
 0.122565192532925E-002
 0.298299611946006E-001
 0.223053435063826E-001
 0.250961107579886E-001
 0.254826002763186E-001
 0.156769572517182E-001
 0.188600606146863E-001
 0.196495040000258E-001
 0.178387537927768E-001
 0.313127372240727E-002
 0.208802744866722E-002
 0.315085614661265E-002
 0.277384975070930E-002
 0.115146110011257E-001
 0.898991278229972E-002
 0.905968192731097E-002
 0.989601703639254E-002
 0.583603226189981E-002
 0.659837038477872E-002
 0.668049978702951E-002
 0.625811758341692E-002
 0.696242356191347E-002
 0.638829241413986E-002
 0.756287780187014E-002
 0.696892570193278E-002
 0.171198989936088E-001
 0.141961139550474E-001
 0.136273491750299E-001
 0.150250148627591E-001
 0.171292491287536E-001
 0.153455757041891E-001
 0.190900809463466E-001
 0.171252004693429E-001
 0.274785994187543E-001
 0.234563665218064E-001
 0.278934815473337E-001
 0.258315217336622E-001
 0.148379485692418E-001
 0.121801988957692E-001
 0.127993663208399E-001
 0.132384242390077E-001
 0.139081867882000E-001
 0.156507040046004E-001
 0.131769825456734E-001
 0.142016178520013E-001
 0.102117707621060E-001
 0.124900329471940E-001
 0.119624038662296E-001
 0.113133778523094E-001
 0.822909818026042E-002
 0.839904684953131E-002
 0.681550400681109E-002
 0.775275673157219E-002
 0.616430550038273E-002
 0.444852758444123E-002
 0.561076431722403E-002
 0.536387601244318E-002
 0.431687363366528E-002
 0.537692834957749E-002
 0.550932089123547E-002
 0.471861448716088E-002
 0.401780417146997E-001
 0.552963504307748E-001
 0.436441891547298E-001
 0.457641364588365E-001
 0.844437485073909E-001
 0.930298772090916E-001
 0.745455460092919E-001
 0.837932559958299E-001
 0.877279429537046E-001
 0.908261867072444E-001
 0.969040902790705E-001
 0.937536779924163E-001
 0.149778836263120E+000
 0.131057738337500E+000
 0.114169850670544E+000
 0.123910552222265E+000
 0.399913949368749E-001
 0.332234139392907E-001
 0.281995087335035E-001
 0.321693628646520E-001
 0.794802607776059E-001
 0.630603927170241E-001
 0.559176266536748E-001
 0.689472123989762E-001
 0.756741681252970E-001
 0.824754889783667E-001
 0.980335233364703E-001
 0.833589049480413E-001
 0.661009697006693E-001
 0.539645210198129E-001
 0.484514059002422E-001
 0.559743931027343E-001
 0.217427808157401E-001
 0.231358902139656E-001
 0.214724086833473E-001
 0.219309794955708E-001
 0.571937980684574E-002
 0.589161011394154E-002
 0.715517895298951E-002
 0.628703633148516E-002
 0.507987676875173E-001
 0.536998673177309E-001
 0.611838251313988E-001
 0.547926366659229E-001
 0.159058884263854E-001
 0.137531865254047E-001
 0.160872826771310E-001
 0.151993262047290E-001
 0.439694026851106E-002
 0.374683989733559E-002
 0.380613638545097E-002
 0.388660142713201E-002
 0.640459251970708E-002
 0.524694206569420E-002
 0.586516340723733E-002
 0.575776930617283E-002
 0.377290432614897E-003
 0.100190146927316E-002
 0.109777934033281E-002
 0.743742727267469E-003
 0.238908927664964E-002
 0.149838003788535E-002
 0.145981110216073E-002
 0.183611683231928E-002
 0.933118302828700E-002
 0.119125623953246E-001
 0.102582233485697E-001
 0.105946005462657E-001
 0.580496140838229E-002
 0.721042113431026E-002
 0.605915713866223E-002
 0.640692453988689E-002
 0.521466807980803E-002
 0.467890694591329E-002
 0.414802738346391E-002
 0.472632893354529E-002
 0.287779677614212E-001
 0.505050208761041E-001
 0.447216975184149E-001
 0.360640564912564E-001
 0.353248719906655E-002
 0.458831563840726E-002
 0.374206296301458E-002
 0.400444920045410E-002
 0.427050377348811E-002
 0.512128068374072E-002
 0.541726188454182E-002
 0.484216781691723E-002
 0.109659044153799E-001
 0.977541671241208E-002
 0.114446567011046E-001
 0.108208380587237E-001
 0.316600602787566E-002
 0.201407674040906E-002
 0.289068998654517E-002
 0.252819635644744E-002
 0.654217896204737E-002
 0.807598268029997E-002
 0.707236820501775E-002
 0.719668201442469E-002
 0.200776308654228E+000
 0.204689060114885E+000
 0.323908831391583E+000
 0.220857082215691E+000
 0.450948327403156E-001
 0.522878223780063E-001
 0.372121564197229E-001
 0.481344244510960E-001
 0.222913398138912E+000
 0.204141057756387E+000
 0.260839614248299E+000
 0.227693422403244E+000
 0.111901113936049E+000
 0.102698375684783E+000
 0.988614727218513E-001
 0.999452188973527E-001
 0.788910776848264E-001
 0.872769044963663E-001
 0.837416811150552E-001
 0.819793371836834E-001
 0.154998951328159E+000
 0.130360085058371E+000
 0.132536309253014E+000
 0.137184083956370E+000
 0.208635543497651E+000
 0.180447351958268E+000
 0.177369261399687E+000
 0.188848728753115E+000
 0.177682886859830E-002
 0.146554026973972E-002
 0.240042507729191E-002
 0.179872612758912E-002
 0.751750683098890E-001
 0.602319193572888E-001
 0.629194438539906E-001
 0.676375242928035E-001
 0.733236940577533E-001
 0.631046953049580E-001
 0.800257633876460E-001
 0.701411954973692E-001
 0.376345703871385E-001
 0.436622014869504E-001
 0.408873793281833E-001
 0.405910653728831E-001
 0.440314928823151E-001
 0.377153975057044E-001
 0.328378248720294E-001
 0.380643071422971E-001
 0.347771298614574E-001
 0.357804577485207E-001
 0.385470540298642E-001
 0.362511933656198E-001
 0.189674147072489E-001
 0.178045410637392E-001
 0.202348518341383E-001
 0.189399569345653E-001
 0.555734917922499E-001
 0.550556053229616E-001
 0.458622032280109E-001
 0.522502773770297E-001
 0.279691949365762E-002
 0.260333600993156E-002
 0.175634472715372E-002
 0.232942601496554E-002
 0.204023097847845E-002
 0.248270694288010E-002
 0.156950639503642E-002
 0.207191345862357E-002
 0.791350082770614E-003
 0.553898241439602E-003
 0.187017318977576E-003
 0.378910306990747E-003
 0.108402213245214E-002
 0.166700477327075E-002
 0.182997176568852E-002
 0.148731632831164E-002
 0.345595323207777E-002
 0.478935316426709E-002
 0.349406678236591E-002
 0.385521007681594E-002
 0.430136290636629E-002
 0.484404888833585E-002
 0.353889313928517E-002
 0.434633164070987E-002
 0.216742255013082E-001
 0.359929923437440E-001
 0.243929504274688E-001
 0.284334736495037E-001
 0.395092963088607E-001
 0.107284248364907E-001
 0.218957580034807E-001
 0.207940110754180E-001
 0.133820857908942E-001
 0.196594341319027E-001
 0.246483166453843E-001
 0.188110390055859E-001
 0.148604565436859E-001
 0.175837986458973E-001
 0.818879853093807E-002
 0.129892825433167E-001
 0.678088854363807E-002
 0.624636884955740E-002
 0.111944010765370E-001
 0.698305820958529E-002
 0.125170913804208E-001
 0.575633758083069E-002
 0.518587775801582E-002
 0.687944790503824E-002
 0.104157332891890E+000
 0.134610064630479E+000
 0.127194956255687E+000
 0.120002142532276E+000
 0.918204618181938E-001
 0.667754688171246E-001
 0.910762004715717E-001
 0.735352622969723E-001
 0.868028931654855E-002
 0.333851744539033E-001
 0.158121605189489E-001
 0.234064705752642E-001
 0.628132124009476E-001
 0.713369983205071E-001
 0.878649398032567E-001
 0.784183779021595E-001
 0.155721996571628E+000
 0.126102213193734E+000
 0.156076758771580E+000
 0.140208566668850E+000
 0.264962413984628E+000
 0.318748981103403E+000
 0.303044599723931E+000
 0.285957716433443E+000
 0.100832049586940E+000
 0.837106676859472E-001
 0.997118180868305E-001
 0.917112515736287E-001
 0.156398360962182E+000
 0.158934664064778E+000
 0.120572188339696E+000
 0.134127614512641E+000
 0.280043213564777E-001
 0.959000514252518E-002
 0.295040679909479E-001
 0.185895893957432E-001
 0.215638541435415E+000
 0.224341863307667E+000
 0.218283900529383E+000
 0.219877204188382E+000
 0.569388260662722E-001
 0.758649568295952E-001
 0.518044112015784E-001
 0.678004730077926E-001
 0.132593529253666E+000
 0.101088871222702E+000
 0.106560806944301E+000
 0.123840653956399E+000
 0.844691652388698E-001
 0.109319692311532E+000
 0.934968395136697E-001
 0.918384076612636E-001
 0.999721809036491E-001
 0.993611540139383E-001
 0.133123589779432E+000
 0.123980130606252E+000
 0.182733033906037E+000
 0.144465397727898E+000
 0.137809551876880E+000
 0.146606171140919E+000
 0.968648520541379E-001
 0.115177228303542E+000
 0.114096910915664E+000
 0.113075959292964E+000
 0.883303619278064E-001
 0.854442645476549E-001
 0.714898400116448E-001
 0.792139472826039E-001
 0.106289107400009E+000
 0.830007647531323E-001
 0.899907710861450E-001
 0.922401764854182E-001
 0.193358551809117E+000
 0.172285046500298E+000
 0.171075835276127E+000
 0.179794878827568E+000
 0.181931724110697E+000
 0.208157532588755E+000
 0.217674173732831E+000
 0.203507734167438E+000
 0.184885675709328E+000
 0.221576431530115E+000
 0.212507128550221E+000
 0.198203329829525E+000
 0.343420513380811E+000
 0.380418000646349E+000
 0.323977671708419E+000
 0.355810957754524E+000
 0.206974931264737E+000
 0.171542606123919E+000
 0.171402688201502E+000
 0.187714828681739E+000
 0.275300415159165E+000
 0.240963723555249E+000
 0.233591245958594E+000
 0.247970011391637E+000
 0.205459272491628E+000
 0.161355010059151E+000