# vtk DataFile Version 3.0
Unstructured Grid
ASCII
DATASET UNSTRUCTURED_GRID
FIELD FieldData 1
TIME 1 1 float
  0.234585E+02
POINTS         2102 double
 0.000000000000000E+000 0.000000000000000E+000 0.000000000000000E+000
 0.100000000000000E+001 0.000000000000000E+000 0.000000000000000E+000
 0.100000000000000E+001 0.100000000000000E+001 0.000000000000000E+000
 0.000000000000000E+000 0.100000000000000E+001 0.000000000000000E+000
 0.125000000000000E+000 0.250000000000000E+000 0.000000000000000E+000
 0.375000000000000E+000 0.250000000000000E+000 0.000000000000000E+000
 0.375000000000000E+000 0.750000000000000E+000 0.000000000000000E+000
 0.125000000000000E+000 0.750000000000000E+000 0.000000000000000E+000
 0.625000000000000E+000 0.250000000000000E+000 0.000000000000000E+000
 0.875000000000000E+000 0.250000000000000E+000 0.000000000000000E+000
 0.875000000000000E+000 0.750000000000000E+000 0.000000000000000E+000
 0.625000000000000E+000 0.750000000000000E+000 0.000000000000000E+000
 0.100000000000000E+001 0.500000000000000E+000 0.000000000000000E+000
 0.000000000000000E+000 0.500000000000000E+000 0.000000000000000E+000
 0.500000000000000E+000 0.000000000000000E+000 0.000000000000000E+000
 0.125000000000000E+000 0.500000000000000E+000 0.000000000000000E+000
 0.000000000000000E+000 0.750000000000000E+000 0.000000000000000E+000
 0.000000000000000E+000 0.250000000000000E+000 0.000000000000000E+000
 0.000000000000000E+000 0.875000000000000E+000 0.000000000000000E+000
 0.000000000000000E+000 0.125000000000000E+000 0.000000000000000E+000
 0.000000000000000E+000 0.812500000000000E+000 0.000000000000000E+000
 0.625000000000000E-001 0.812500000000000E+000 0.000000000000000E+000
 0.125000000000000E+000 0.375000000000000E+000 0.000000000000000E+000
 0.000000000000000E+000 0.375000000000000E+000 0.000000000000000E+000
 0.125000000000000E+000 0.625000000000000E+000 0.000000000000000E+000
 0.312500000000000E-001 0.781250000000000E+000 0.000000000000000E+000
 0.000000000000000E+000 0.625000000000000E+000 0.000000000000000E+000
 0.781250000000000E-001 0.765625000000000E+000 0.000000000000000E+000
 0.312500000000000E-001 0.843750000000000E+000 0.000000000000000E+000
 0.500000000000000E+000 0.100000000000000E+001 0.000000000000000E+000
 0.852352799227800E-001 0.850726351351351E+000 0.000000000000000E+000
 0.531250000000000E-001 0.896875000000000E+000 0.000000000000000E+000
 0.128125000000000E+000 0.862500000000000E+000 0.000000000000000E+000
 0.125000000000000E+000 0.100000000000000E+001 0.000000000000000E+000
 0.250000000000000E+000 0.750000000000000E+000 0.000000000000000E+000
 0.000000000000000E+000 0.937500000000000E+000 0.000000000000000E+000
 0.250000000000000E+000 0.100000000000000E+001 0.000000000000000E+000
 0.117915518486872E+000 0.805415518486872E+000 0.000000000000000E+000
 0.201656717908302E+000 0.819893736067327E+000 0.000000000000000E+000
 0.181985294117647E-001 0.906250000000000E+000 0.000000000000000E+000
 0.157158578892515E+000 0.827852167423944E+000 0.000000000000000E+000
 0.187500000000000E+000 0.750000000000000E+000 0.000000000000000E+000
 0.190370748034901E+000 0.885171153579592E+000 0.000000000000000E+000
 0.173219498992632E+000 0.789273026175030E+000 0.000000000000000E+000
 0.125000000000000E+000 0.687500000000000E+000 0.000000000000000E+000
 0.000000000000000E+000 0.687500000000000E+000 0.000000000000000E+000
 0.441080729166667E-001 0.732584635416667E+000 0.000000000000000E+000
 0.625000000000000E-001 0.100000000000000E+001 0.000000000000000E+000
 0.324539302647226E+000 0.874753539998500E+000 0.000000000000000E+000
 0.138239725210285E+000 0.931515391482052E+000 0.000000000000000E+000
 0.218750000000000E+000 0.780050991479902E+000 0.000000000000000E+000
 0.282595248614805E+000 0.815169690490412E+000 0.000000000000000E+000
 0.241894668607517E+000 0.813568527927710E+000 0.000000000000000E+000
 0.259830219207979E+000 0.875750318441249E+000 0.000000000000000E+000
 0.375000000000000E+000 0.687500000000000E+000 0.000000000000000E+000
 0.894072114981556E-001 0.718750000000000E+000 0.000000000000000E+000
 0.156250000000000E+000 0.718750000000000E+000 0.000000000000000E+000
 0.171875000000000E+000 0.671875000000000E+000 0.000000000000000E+000
 0.208984375000000E+000 0.705078125000000E+000 0.000000000000000E+000
 0.187500000000000E+000 0.100000000000000E+001 0.000000000000000E+000
 0.100742481264918E+000 0.901762004578004E+000 0.000000000000000E+000
 0.897955050140944E-001 0.954063112745616E+000 0.000000000000000E+000
 0.454072994832874E-001 0.943019090840959E+000 0.000000000000000E+000
 0.312500000000000E-001 0.978320013898389E+000 0.000000000000000E+000
 0.151802024837252E+000 0.894278844061106E+000 0.000000000000000E+000
 0.312500000000000E+000 0.750000000000000E+000 0.000000000000000E+000
 0.349824395642442E+000 0.812398913150492E+000 0.000000000000000E+000
 0.291845278223558E+000 0.853213315943310E+000 0.000000000000000E+000
 0.312500000000000E+000 0.100000000000000E+001 0.000000000000000E+000
 0.221920040905101E+000 0.857011448773234E+000 0.000000000000000E+000
 0.610875609743251E-001 0.656250000000000E+000 0.000000000000000E+000
 0.575501251937821E-001 0.695518883967223E+000 0.000000000000000E+000
 0.229414059980049E+000 0.912264575939035E+000 0.000000000000000E+000
 0.267409472953924E+000 0.912989160289387E+000 0.000000000000000E+000
 0.247617500704634E+000 0.954276202159214E+000 0.000000000000000E+000
 0.186156415773925E+000 0.932922904662876E+000 0.000000000000000E+000
 0.161177138586098E+000 0.966975254724362E+000 0.000000000000000E+000
 0.281250000000000E+000 0.775106270475024E+000 0.000000000000000E+000
 0.232477697233870E+000 0.641481728091557E+000 0.000000000000000E+000
 0.375000000000000E+000 0.500000000000000E+000 0.000000000000000E+000
 0.343750000000000E+000 0.773669964712841E+000 0.000000000000000E+000
 0.500000000000000E+000 0.836710937419870E+000 0.000000000000000E+000
 0.625000000000000E-001 0.460493798860530E+000 0.000000000000000E+000
 0.225506433867106E-001 0.656250000000000E+000 0.000000000000000E+000
 0.625000000000000E-001 0.578156919744020E+000 0.000000000000000E+000
 0.100683627400278E+000 0.656250000000000E+000 0.000000000000000E+000
 0.808855941873017E-001 0.617548766045778E+000 0.000000000000000E+000
 0.396623706279028E-001 0.612802597169787E+000 0.000000000000000E+000
 0.000000000000000E+000 0.562500000000000E+000 0.000000000000000E+000
 0.209099082089092E+000 0.966015356758449E+000 0.000000000000000E+000
 0.208176344887401E+000 0.668642063067022E+000 0.000000000000000E+000
 0.375000000000000E+000 0.625000000000000E+000 0.000000000000000E+000
 0.281250000000000E+000 0.727693574222975E+000 0.000000000000000E+000
 0.410395729589754E-001 0.531250000000000E+000 0.000000000000000E+000
 0.243044505147503E+000 0.715165207256627E+000 0.000000000000000E+000
 0.427668699245901E+000 0.807527989856971E+000 0.000000000000000E+000
 0.375000000000000E+000 0.100000000000000E+001 0.000000000000000E+000
 0.396556497766215E+000 0.872516538744482E+000 0.000000000000000E+000
 0.125000000000000E+000 0.562500000000000E+000 0.000000000000000E+000
 0.386020873411304E-001 0.491878123024719E+000 0.000000000000000E+000
 0.837862679783012E-001 0.496009823563561E+000 0.000000000000000E+000
 0.181474703505393E+000 0.615400296494607E+000 0.000000000000000E+000
 0.156642498481761E+000 0.640232501518239E+000 0.000000000000000E+000
 0.148741293073547E+000 0.593750000000000E+000 0.000000000000000E+000
 0.198570897886273E+000 0.531250000000000E+000 0.000000000000000E+000
 0.186280074550956E+000 0.572564766212389E+000 0.000000000000000E+000
 0.261115628859886E+000 0.572342169151976E+000 0.000000000000000E+000
 0.223664380580028E+000 0.561200712513239E+000 0.000000000000000E+000
 0.260913847788851E+000 0.504504802962447E+000 0.000000000000000E+000
 0.220403809070327E+000 0.602182935170118E+000 0.000000000000000E+000
 0.280942357260745E+000 0.670965807217831E+000 0.000000000000000E+000
 0.303530083216233E+000 0.699208028468857E+000 0.000000000000000E+000
 0.244300952472090E+000 0.677895460994186E+000 0.000000000000000E+000
 0.278676255979588E+000 0.620116626474426E+000 0.000000000000000E+000
 0.375000000000000E+000 0.562500000000000E+000 0.000000000000000E+000
 0.294783395930685E+000 0.587081428049465E+000 0.000000000000000E+000
 0.296390010773290E+000 0.538188197482711E+000 0.000000000000000E+000
 0.326808615275446E+000 0.623140446700340E+000 0.000000000000000E+000
 0.375000000000000E+000 0.375000000000000E+000 0.000000000000000E+000
 0.341600259444201E+000 0.531250000000000E+000 0.000000000000000E+000
 0.337040360926244E+000 0.581802448479955E+000 0.000000000000000E+000
 0.313454820588085E+000 0.656240056545723E+000 0.000000000000000E+000
 0.244117968371280E+000 0.386059455330322E+000 0.000000000000000E+000
 0.316730626055850E+000 0.471195859600445E+000 0.000000000000000E+000
 0.343361747898823E+000 0.718361747898823E+000 0.000000000000000E+000
 0.387582141166944E+000 0.791354577928815E+000 0.000000000000000E+000
 0.394629419637968E+000 0.831652479273046E+000 0.000000000000000E+000
 0.359139968398398E+000 0.852480346691833E+000 0.000000000000000E+000
 0.449407668689709E+000 0.857876667231944E+000 0.000000000000000E+000
 0.504433083654504E+000 0.918355468709935E+000 0.000000000000000E+000
 0.438910290808154E+000 0.922698775777408E+000 0.000000000000000E+000
 0.487684842153978E+000 0.878322236197629E+000 0.000000000000000E+000
 0.750000000000000E+000 0.100000000000000E+001 0.000000000000000E+000
 0.429264219376497E+000 0.887875644335434E+000 0.000000000000000E+000
 0.297282757956014E+000 0.952697072250340E+000 0.000000000000000E+000
 0.308758340495749E+000 0.912972519020668E+000 0.000000000000000E+000
 0.353713070703707E+000 0.947478792032462E+000 0.000000000000000E+000
 0.343750000000000E+000 0.982091257636542E+000 0.000000000000000E+000
 0.437500000000000E+000 0.100000000000000E+001 0.000000000000000E+000
 0.386196294810884E+000 0.916319687483247E+000 0.000000000000000E+000
[...]
CELL_DATA         4076
SCALARS tdens double 1
LOOKUP_TABLE default
 0.202972562381546E-007
 0.241053194963113E-007
 0.302128486909671E-007
 0.247310626557189E-007
 0.115046326389174E-004
 0.611322431109040E-005
 0.622051327918109E-005
 0.662582546812885E-005
 0.250021681767900E+000
 0.623189854122596E+000
 0.197551588485502E+000
 0.281627114751785E+000
 0.217683552916229E-007
 0.321106663064616E-007
 0.290684170295141E-007
 0.259869364064968E-007
 0.389951544192949E-007
 0.642767988065289E-007
 0.548706829923313E-007
 0.484793327877556E-007
 0.728218461360303E-007
 0.111497806547816E-006
 0.895920403819375E-007
 0.890287448141580E-007
 0.264744871309210E-002
 0.250462455938762E-002
 0.246397040157958E-001
 0.152194433276595E-001
 0.168684949174688E-004
 0.432249276285248E-004
 0.301991270451946E-004
 0.318920254085388E-004
 0.162575082971838E-003
 0.591454143489616E-004
 0.108713685307931E-003
 0.114732830447653E-003
 0.448214174811984E-007
 0.459116792678426E-007
 0.479242349304561E-007
 0.465343155838298E-007
 0.842004071619566E-006
 0.635456108429613E-006
 0.596012638027760E-006
 0.666567247481709E-006
 0.693677252629805E-001
 0.202442120505520E-001
 0.189309610315393E-001
 0.178149268437486E-001
 0.286215797760534E-007
 0.305034153727750E-007
 0.422232711724157E-007
 0.317286835796747E-007
 0.252988820537418E-001
 0.309380417891110E-001
 0.121775157102469E+000
 0.232695550856741E-001
 0.190585135075968E-005
 0.134366607460943E-005
 0.135728772459763E-005
 0.146087178563362E-005
 0.461216928963237E-005
 0.311011269069684E-005
 0.216191471057401E-005
 0.311576562243967E-005
 0.453245621540255E-007
 0.555814125705146E-007
 0.831017736066881E-007
 0.591707966595119E-007
 0.340001381364036E-006
 0.273640590194137E-006
 0.187031156058488E-006
 0.266306012039542E-006
 0.140150652333817E-007
 0.134977479940142E-007
 0.263326831623156E-007
 0.178310288491549E-007
 0.607592054801191E-002
 0.468164121611706E-001
 0.169081466956342E-002
 0.413850713473218E-002
 0.432218886541293E-001
 0.712494191837294E-001
 0.133738789256892E-001
 0.293147341539850E-001
 0.431980519669727E-007
 0.441431884332900E-007
 0.466470560460394E-007
 0.449066856294179E-007
 0.122298529650042E-001
 0.523918621555096E-001
 0.686568751668441E-001
 0.471652370399114E-001
 0.557818240379658E-007
 0.437952231543481E-007
 0.497516454560213E-007
 0.480712190823441E-007
 0.119116122471867E-001
 0.457256880820808E-002
 0.612884914550471E-001
 0.190139991040826E-001
 0.224503982959458E-005
 0.110563731059963E-005
 0.106270625949523E-005
 0.121554791389206E-005
 0.815782132801088E-007
 0.155312730859565E-006
 0.880282154154964E-007
 0.100340790068240E-006
 0.697621346778351E+000
 0.293246758925530E+000
 0.421237242734602E+000
 0.480901179795248E+000
 0.641026505159181E-007
 0.792072767747922E-007
 0.541098313711511E-007
 0.643653916209719E-007
 0.837582912736027E-006
 0.217144738902563E-006
 0.345334745112614E-006
 0.354976990035244E-006
 0.104637625043975E-006
 0.207777096394177E-006
 0.149021358101321E-006
 0.145161525089991E-006
 0.228098470046989E-006
 0.152938689782402E-006
 0.157411506681427E-006
 0.172823880330418E-006
 0.298664952229346E-006
 0.724810238330539E-006
 0.142320318456014E-006
 0.262857027141794E-006
 0.188919227647622E-006
 0.275156984977607E-006
 0.362566612616364E-006
 0.263615370844151E-006
 0.484488196160012E-007
 0.410782012478925E-007
 0.166784809572492E-007
 0.248255619894713E-007
 0.107905041913457E+000
 0.179490078350027E+000
 0.177033489593153E+000
 0.205365252160153E+000
 0.268897843432225E-006
 0.124293343729231E-006
 0.623526785365248E-006
 0.207461436482623E-006
 0.359930659384407E-007
 0.293709209880378E-007
 0.380910330537695E-007
 0.344209229634314E-007
 0.883205726793723E-007
 0.602242700944169E-007
 0.862746713189379E-007
 0.760080926440674E-007
 0.483734094810447E-007
 0.489951763728516E-007
 0.438584312448655E-007
 0.464211017590557E-007
 0.676223321637580E-007
 0.566416877668179E-007
 0.807156992061319E-007
 0.666392341097880E-007
 0.279116041250488E-006
 0.153623812327719E-006
 0.589838724913764E-006
 0.268336840585838E-006
 0.411531305380443E-007
 0.525366323616814E-007
 0.413905640807826E-007
 0.450630999165173E-007
 0.101376966011567E-007
 0.578834968608443E-008
 0.739126543214776E-008
 0.794282904233069E-008
 0.144705138462202E-005
 0.205596952274865E-005
 0.209838743823358E-005
 0.191806828310536E-005
 0.130774383055403E-007
 0.212447037001024E-007
 0.240696601314821E-007
 0.185625963971803E-007
 0.315233324550193E-004
 0.417650269917072E-004
 0.111078577238409E-004
 0.314435646185114E-004
 0.183385256162860E-005
 0.512567698911507E-006
 0.224305193903970E-005
 0.132544193040069E-005
 0.858002035847548E-007
 0.111008005063760E-006
 0.171598156953903E-006
 0.115692554591998E-006
 0.614162450988472E-007
 0.533674823774000E-007
 0.384883471941275E-007
 0.502224917688650E-007
 0.693466796365652E-007
 0.801312487694133E-007
 0.110665431959680E-006
 0.846397608264791E-007
 0.344823891624001E-007
 0.293600165127070E-007
 0.266093080387807E-007
 0.288559336387634E-007
 0.132923338586232E+000
 0.855170863458144E-001
 0.216102264934876E+000
 0.155354869968789E+000
 0.359539239537760E-007
 0.401700824373822E-007
 0.560670818249024E-007
 0.435111722198152E-007
 0.244154380016766E-007
 0.191022755964953E-007
 0.223211040612736E-007
 0.226154601232897E-007
 0.215038189127671E-004
 0.362232525319600E-004
 0.545469812225427E-005
 0.105076059860252E-004
 0.113823258415231E-006
 0.135537443149087E-006
 0.921903123113588E-007
 0.113584418464319E-006
 0.461714468485380E-007
 0.620855674078642E-007
 0.646721846997530E-007
 0.559756683552079E-007
 0.140800764350759E-006
 0.989540246955170E-007
 0.180314567584600E-006
 0.136664142227993E-006
 0.441932427902520E-007
 0.292842653007678E-007
 0.316529609778907E-007
 0.349214597695386E-007
 0.121019661758332E-007
 0.203588729900285E-007
 0.166387578051611E-007
 0.160918213636127E-007
 0.699765980613010E-006
 0.154666786684076E-005
 0.127403641801014E-005
 0.127246332149601E-005
 0.410664991762941E-006
 0.561911315277702E-006
 0.962465086468528E-006
 0.553372996024272E-006
 0.461166092270127E-004
 0.691458850818293E-004
 0.177766606028345E-004
 0.385506077273811E-004
 0.106755156517750E-001
 0.466936316214096E-001
 0.264906978623329E-002
 0.179798063298878E-001
 0.360986449512571E-005
 0.227053035289868E-005
 0.593356746078582E-005
 0.388346344581624E-005
 0.863408498172538E-007
 0.121282008737855E-006
 0.120151183579828E-006
 0.109835098672265E-006
 0.442386750042190E-006
 0.139381105471182E-005
 0.590399381382728E-006
 0.672326415290893E-006
 0.950566301529726E-005
 0.457422823951462E-005
 0.201829375995653E-004
 0.112320876303140E-004
 0.223188987864003E-007
 0.259786899377562E-007
 0.283758569656480E-007
 0.254518875339129E-007
 0.747158697519025E-007
 0.545015453743423E-007
 0.553717642907675E-007
 0.607601635270098E-007
 0.432697719150241E-007
 0.408132956099619E-007
 0.348592064256744E-007
 0.392348907072826E-007
 0.728953339512378E-007
 0.535420775041224E-007
 0.516051310480275E-007
 0.582894375365993E-007
 0.175220531673829E-007
 0.257877369168985E-007
 0.232799378274873E-007
 0.215128513362404E-007
 0.102402456078964E-007
 0.148722531064981E-007
 0.127812805602424E-007
 0.117457401381716E-007
 0.236846797358027E-005
 0.278538077956742E-005
 0.636222110423149E-005
 0.286036018975563E-005
 0.537417349137708E-006
 0.422639738481347E-006
 0.577926295215279E-006
 0.518362452985127E-006
 0.151849905585017E-006
 0.231319345201875E-006
 0.141748498635815E-006
 0.167653251823500E-006
 0.317176721262952E-006
 0.171505658437848E-006
 0.173260522345706E-006
 0.198426572958644E-006
 0.213510324969580E-004
 0.650705312622952E-005
 0.106633244786263E-004
 0.110149530406705E-004
 0.333817139698221E-005
 0.643502093090868E-005
 0.238305620269637E-005
 0.308650091315377E-005
 0.166107243290444E-003
 0.887040641287166E-003
 0.555705787103051E-003
 0.690611820510576E-003
 0.382014687087532E-005
 0.484560215041273E-005
 0.269909398716691E-005
 0.355268138706280E-005
 0.420300150583871E-004
 0.175470244304151E-004
 0.717497777883343E-004
 0.370776254239623E-004
 0.185310855480379E-005
 0.117130073250105E-005
 0.234608052204215E-005
 0.190219060779015E-005
 0.847905196328707E-006
 0.986847981653437E-006
 0.147699919608434E-005
 0.100814532560219E-005
 0.913290419632143E-006
 0.715921227480794E-006
 0.416503057509952E-006
 0.717677934016932E-006
 0.607769008889366E-002
 0.466931783173640E+000
 0.578336466360066E+001
 0.439982648226160E+000
 0.305973662504066E-001
 0.840422861359864E-002
 0.451405339562376E-001
 0.328376809491306E-001
 0.127530360829577E-006
 0.128669328200239E-006
 0.399160550017563E-006
 0.166848334098537E-006
 0.308860046954588E-007
 0.291754995530544E-007
 0.376370594043646E-007
 0.326266583483428E-007
 0.120548975415568E+000
 0.151002133238619E+000
 0.922993681854154E-001
 0.935046776515336E-001
 0.327827397437032E-002
 0.251044670856064E-002
 0.342155533328628E-001
 0.139571883280132E-001
 0.234132272425828E-002
 0.222597714833225E-001
 0.231792798720586E-002
 0.126715578053496E-001
 0.550598917365492E-001
 0.119935263734271E-001
 0.490655753820281E-001
 0.222430215047180E-001
 0.343920258890322E-001
 0.255618165971346E-001
 0.124363423999614E+000
 0.218566571648025E-001
 0.197516579869437E-001
 0.611011430192777E-001
 0.566671098972557E-001
 0.165824339664640E-001
 0.764373259971159E-007
 0.106478479343391E-006
 0.724795486759731E-007
 0.829180233085232E-007
 0.118429966286578E-006
 0.753408345223668E-007
 0.120364362429312E-006
 0.105445761594070E-006
 0.343290480540408E-007
 0.513261145560906E-007
 0.568710506316953E-007
 0.469020982934353E-007
 0.307946759973335E-007
 0.295332062337915E-007
 0.492388009077777E-007
 0.363505405176765E-007
 0.593993680127527E-008
 0.102866781596757E-007
 0.754785218814560E-008
 0.807768251464720E-008
 0.237067552486558E-007
 0.160157039002408E-007
 0.176494110724555E-007
 0.191134399095852E-007
 0.106884000973703E-007
 0.134967390953019E-007
 0.188648412213127E-007
 0.137756067206166E-007
 0.590451299075020E-008
 0.153768349061071E-008
 0.415473046567981E-008
 0.340332540183632E-008
 0.546381332509830E-008
 0.392410728163418E-008
 0.142217479948816E-008
 0.305782347769072E-008
 0.264282110203847E-006
 0.171778323781911E-006
 0.253792470935760E-006
 0.233759490151064E-006
 0.685631960096811E-007
 0.106993082032042E-006
 0.763492320388222E-007
 0.811659420118718E-007
 0.635626231494647E-003
 0.141356629894562E-003
 0.938286943082145E-004
 0.152901480205165E-003
 0.153413392742248E+000
 0.300088794390691E+000
 0.267431074026001E+000
 0.193418599022507E+000
 0.262283709830038E-004
 0.697579144369036E-004
 0.408409627535500E-004
 0.399006795449457E-004
 0.292730353565491E-006
 0.274775597956240E-006
 0.202652691757185E-006
 0.244951931688628E-006
 0.722152375926949E-005
 0.313609672804258E-005
 0.556486836480637E-005
 0.555841297475705E-005
 0.478931947203493E-006
 0.567616513088224E-006
 0.410705503968544E-006
 0.478900824616139E-006
 0.314428265848472E-008
 0.448376239807046E-008
 0.120078439612378E-008
 0.298796165413041E-008
 0.542216245477552E-008
 0.962202863967045E-008
 0.665522222011692E-008
 0.664433027211985E-008
 0.248039684284225E-005
 0.114859012860431E-005
 0.167215208373946E-005
 0.157540262589763E-005
 0.419300833079047E-006
 0.666353684813396E-006
 0.694530920656108E-006
 0.614330269548146E-006
 0.167358726689687E-007
 0.109414800199889E-007
 0.169885012877209E-007
 0.147306864559698E-007
 0.156562365781117E-006
 0.701323045681268E-007
 0.952442993964016E-007
 0.105682571696055E-006
 0.343779277408579E-007
 0.427276627733530E-007
 0.448789264514618E-007
 0.393713677406108E-007
 0.464472715741910E-007
 0.404694779187892E-007
 0.527694951064539E-007
 0.467767828990235E-007
 0.599974422982771E-006
 0.368123108839771E-006
 0.358849778705744E-006
 0.403434087359833E-006
 0.490813196386267E-006
 0.402605007053124E-006
 0.663625402067255E-006
 0.499187895492613E-006
 0.134690940475227E-005
 0.887435660890091E-006
 0.146815780517722E-005
 0.130074460324647E-005
 0.276796913352300E-006
 0.181431909381127E-006
 0.216366029623647E-006
 0.228131181052752E-006
 0.313411679930607E-006
 0.385486065472651E-006
 0.253921515412527E-006
 0.314188796771418E-006
 0.155710273829393E-006
 0.245265103546621E-006
 0.206609589276140E-006
 0.195653806379704E-006
 0.114825437780083E-006
 0.110815587733265E-006
 0.802590031782549E-007
 0.101071201358197E-006
 0.629731213591398E-007
 0.394365411786470E-007
 0.570761934489800E-007
 0.517930916533012E-007
 0.389064931551181E-007
 0.584090730665984E-007
 0.571965711803018E-007
 0.472681261086391E-007
 0.642835331003134E-005
 0.217149574597555E-004
 0.803640475026882E-005
 0.818325220514340E-005
 0.199731860752165E-003
 0.774387214132343E-003
 0.869785052832835E-004
 0.290841677473148E-003
 0.188131936872120E-002
 0.952120086289182E-002
 0.952524708151322E-002
 0.495865479900925E-002
 0.133483042836650E+001
 0.292737711612252E+000
 0.920105728018180E+000
 0.123273957660778E+001
 0.706912716876929E-001
 0.614190336893456E-001
 0.534029129061275E-001
 0.715217457221114E-001
 0.272229129063549E+000
 0.163888143433180E+000
 0.122996129879591E+000
 0.184163480540586E+000
 0.639014849429312E-004
 0.116736746905175E-003
 0.324269165800387E-003
 0.101579634970276E-003
 0.407738222519418E-004
 0.153523517646467E-004
 0.111847735137248E-004
 0.153026230015752E-004
 0.544600131048799E-006
 0.592065580494706E-006
 0.492078236569143E-006
 0.538931047198951E-006
 0.346087155817241E-007
 0.450927919962086E-007
 0.564358313469499E-007
 0.418276652466625E-007
 0.980626613255668E-005
 0.133181390395938E-004
 0.218771184072723E-004
 0.126324676117994E-004
 0.341571759621233E-006
 0.263548796801850E-006
 0.388342789039824E-006
 0.328941185806308E-006
 0.242398673458433E-007
 0.202198187103681E-007
 0.208134527478540E-007
 0.211943091530992E-007
 0.404437175097098E-007
 0.302066629980026E-007
 0.355747942055073E-007
 0.347290649242764E-007
 0.196029616940764E-008
 0.521719109535822E-008
 0.564409853999620E-008
 0.382373619386842E-008
 0.127898217500423E-007
 0.779555194320276E-008
 0.766567062828168E-008
 0.965843825610402E-008
 0.783697282330282E-007
 0.166125842248752E-006
 0.103655091665679E-006
 0.102150108394282E-006
 0.356641228744067E-007
 0.491694414548339E-007
 0.378526101584797E-007
 0.406839661639090E-007
 0.305992692707476E-007
 0.263530175642053E-007
 0.231452761273405E-007
 0.267810784541433E-007
 0.401797063742934E-001
 0.651358455038821E-001
 0.751706225636609E-001
 0.472278525026202E-001
 0.195301278457799E-007
 0.264037931025263E-007
 0.207647654962450E-007
 0.223819794866867E-007
 0.239863592103207E-007
 0.300509739312337E-007
 0.321486023326839E-007
 0.281184383972904E-007
 0.155923383259615E-006
 0.137413569838868E-006
 0.182455482042803E-006
 0.156514515346236E-006
 0.171236294441942E-007
 0.105573811560605E-007
 0.155973133888819E-007
 0.135292094768395E-007
 0.732127342034352E-007
 0.100214527617718E-006
 0.777618335475752E-007
 0.818564125552966E-007
 0.275310154590050E-003
 0.515693066399440E-003
 0.518463989640937E-002
 0.298693592483806E-003
 0.897611822299722E-001
 0.112742296483861E+000
 0.673255249992994E-001
 0.109934711176373E+000
 0.401780620635795E-002
 0.576181252706712E-002
 0.459652270556013E-001
 0.543654529263627E-002
 0.138700573302942E-001
 0.222014056003217E-001
 0.962962632307573E-002
 0.952637930643984E-002
 0.374732347340371E-001
 0.245970908392554E-001
 0.137831305409209E-001
 0.218336984491330E-001
 0.105422042391593E+000
 0.671026008793361E-001
 0.139969798496924E+000
 0.113879691417376E+000
 0.177473816278252E+001
 0.565090357832218E+000
 0.192155926320381E+001
 0.156620824225324E+001
 0.988180415470412E-008
 0.781753328590128E-008
 0.131895261715159E-007
 0.981744259325798E-008
 0.490081326989173E+000
 0.328492125565826E+000
 0.323311415947138E+000
 0.388478596524008E+000
 0.499368278893359E-001
 0.458054444781426E-001
 0.574986064724710E-001
 0.800084715163050E-001
 0.294948667671264E-005
 0.509418241338892E-005
 0.381617667592373E-005
 0.384632647568230E-005
 0.635429407226519E-005
 0.356809983015477E-005
 0.239169887948670E-005
 0.372127509602640E-005
 0.215909356509527E-005
 0.246214551684485E-005
 0.303232349461413E-005
 0.248007211317853E-005
 0.412320446257626E-006
 0.394637847077812E-006
 0.498801836052379E-006
 0.422504247739388E-006
 0.115386318073055E-004
 0.109754276637533E-004
 0.535753022226577E-005
 0.105888895370250E-004
 0.149150039581615E-007
 0.141507459317971E-007
 0.928971520720938E-008
 0.124235012902626E-007
 0.112237120640938E-007
 0.134257220256128E-007
 0.834559377353158E-008
 0.111780168558031E-007
 0.417375667870967E-008
 0.301986766796146E-008
 0.100999759104931E-008
 0.204704748179259E-008
 0.598708603188504E-008
 0.937839827063852E-008
 0.102869249313000E-007
 0.836221115455878E-008
 0.189853350882750E-007
 0.300701345887819E-007
 0.192133860445461E-007
 0.213560564236620E-007
 0.350344041468474E-007
 0.361114146715594E-007
 0.195109725915679E-007
 0.274495538245046E-007
 0.391713298527687E-001
 0.662784737526212E-001
 0.381371052827394E-001
 0.546621675555315E-001
 0.716359477618189E-001
 0.174264025200148E-001
 0.367269720345093E-001
 0.338472534185347E-001
 0.172606128872552E-001
 0.476465378222652E-001
 0.483517473463388E-001
 0.213065879482244E-001
 0.266784472935163E-001
 0.294784980256062E-001
 0.120176386655724E-001
 0.194541264412404E-001
 0.193526761687033E-002
 0.188067155634428E-002
 0.163188802281636E-001
 0.857532090668545E-002
 0.187317176446139E-001
 0.232538145326370E-002
 0.221220630166141E-002
 0.114791346874086E-001
 0.160022073271047E+000
 0.229139730021244E+000
 0.608558852049914E+000
 0.110597609142419E+000
 0.223253150669470E+000
 0.114177553071174E+000
 0.130715829181865E+000
 0.891425331176454E-001
 0.944019260347178E-002
 0.312302619675886E-001
 0.818137553696418E-002
 0.495119326671513E-001
 0.876518391561590E-001
 0.906315834829826E-001
 0.106592185299318E+000
 0.104941753362656E+000
 0.129412127472380E+000
 0.131174686550963E+000
 0.145864887629957E+000
 0.121077105119994E+000
 0.905663501234283E-001
 0.882036461462815E-001
 0.199020667891646E+000
 0.809895197251613E-001
 0.119348209236154E+000
 0.985512199367274E-001
 0.983347617245177E-001
 0.975038086054832E-001
 0.237200072887541E+000
 0.302054363414700E+000
 0.210637393324324E+000
 0.216612999784180E+000
 0.603684138336203E-001
 0.199718593894654E-001
 0.630565165589923E-001
 0.306729781883402E-001
 0.218107819830782E+001
 0.689198416973750E+000
 0.193456473581792E+001
 0.149728102567006E+001
 0.689093004034975E-001
 0.112741642973213E+000
 0.700289808497924E-001
 0.108287779090271E+000
 0.165353622123303E+000
 0.165656655646555E+000
 0.115574202068460E+000
 0.152215642018532E+000
 0.378120125018217E-001
 0.741413756669211E-001
 0.284764214731501E-001
 0.939318903314636E-001
 0.183239545947754E+000
 0.104726847921323E+000
 0.143233318627747E+000
 0.223748461029082E+000
 0.232768515595298E-001
 0.179456946164610E-001
 0.175760193351928E-001
 0.110750382862607E-001
 0.469683819438701E-001
 0.146972353459656E+000
 0.693233801879392E-001
 0.353099118921352E-001
 0.517436591807840E+000
 0.500680921982941E+000
 0.438271641607261E+000
 0.456604191291045E+000
 0.230661916573470E+000
 0.116005298309339E+000
 0.121346540251730E+000
 0.123625804121281E+000
 0.334098826098294E+000
 0.407643302761197E+000
 0.271117538821174E+000
 0.260809720889389E+000
 0.488113092166573E+000
 0.280963242458655E+000
 0.189998664019872E+001
 0.961955362384545E+000
 0.139776413184262E+000
 0.113971967968185E+000
 0.189710163102030E+000
 0.153011616586573E+000
 0.978370325093854E-001
 0.116785385048323E+000
 0.209771695588279E+000
 0.124075724515034E+000
 0.142356928814930E+000
 0.117342214237168E+000
 0.158654661377897E+000
 0.145638978488785E+000
 0.683872284857570E+000
 0.208845920935269E+001
 0.466594890453402E+000
 0.397655994245457E+000
 0.386809010550596E-001
 0.838283872038492E-001