# vtk DataFile Version 3.0
Unstructured Grid
ASCII
DATASET UNSTRUCTURED_GRID
FIELD FieldData 1
TIME 1 1 float
  0.189585E+02
POINTS         2102 double
 0.000000000000000E+000 0.000000000000000E+000 0.000000000000000E+000
 0.100000000000000E+001 0.000000000000000E+000 0.000000000000000E+000
 0.100000000000000E+001 0.100000000000000E+001 0.000000000000000E+000
 0.000000000000000E+000 0.100000000000000E+001 0.000000000000000E+000
 0.125000000000000E+000 0.250000000000000E+000 0.000000000000000E+000
 0.375000000000000E+000 0.250000000000000E+000 0.000000000000000E+000
 0.375000000000000E+000 0.750000000000000E+000 0.000000000000000E+000
 0.125000000000000E+000 0.750000000000000E+000 0.000000000000000E+000
 0.625000000000000E+000 0.250000000000000E+000 0.000000000000000E+000
 0.875000000000000E+000 0.250000000000000E+000 0.000000000000000E+000
 0.875000000000000E+000 0.750000000000000E+000 0.000000000000000E+000
 0.625000000000000E+000 0.750000000000000E+000 0.000000000000000E+000
 0.100000000000000E+001 0.500000000000000E+000 0.000000000000000E+000
 0.000000000000000E+000 0.500000000000000E+000 0.000000000000000E+000
 0.500000000000000E+000 0.000000000000000E+000 0.000000000000000E+000
 0.125000000000000E+000 0.500000000000000E+000 0.000000000000000E+000
 0.000000000000000E+000 0.750000000000000E+000 0.000000000000000E+000
 0.000000000000000E+000 0.250000000000000E+000 0.000000000000000E+000
 0.000000000000000E+000 0.875000000000000E+000 0.000000000000000E+000
 0.000000000000000E+000 0.125000000000000E+000 0.000000000000000E+000
 0.000000000000000E+000 0.812500000000000E+000 0.000000000000000E+000
 0.625000000000000E-001 0.812500000000000E+000 0.000000000000000E+000
 0.125000000000000E+000 0.375000000000000E+000 0.000000000000000E+000
 0.000000000000000E+000 0.375000000000000E+000 0.000000000000000E+000
 0.125000000000000E+000 0.625000000000000E+000 0.000000000000000E+000
 0.312500000000000E-001 0.781250000000000E+000 0.000000000000000E+000
 0.000000000000000E+000 0.625000000000000E+000 0.000000000000000E+000
 0.781250000000000E-001 0.765625000000000E+000 0.000000000000000E+000
 0.312500000000000E-001 0.843750000000000E+000 0.000000000000000E+000
 0.500000000000000E+000 0.100000000000000E+001 0.000000000000000E+000
 0.852352799227800E-001 0.850726351351351E+000 0.000000000000000E+000
 0.531250000000000E-001 0.896875000000000E+000 0.000000000000000E+000
 0.128125000000000E+000 0.862500000000000E+000 0.000000000000000E+000
 0.125000000000000E+000 0.100000000000000E+001 0.000000000000000E+000
 0.250000000000000E+000 0.750000000000000E+000 0.000000000000000E+000
 0.000000000000000E+000 0.937500000000000E+000 0.000000000000000E+000
 0.250000000000000E+000 0.100000000000000E+001 0.000000000000000E+000
 0.117915518486872E+000 0.805415518486872E+000 0.000000000000000E+000
 0.201656717908302E+000 0.819893736067327E+000 0.000000000000000E+000
 0.181985294117647E-001 0.906250000000000E+000 0.000000000000000E+000
 0.157158578892515E+000 0.827852167423944E+000 0.000000000000000E+000
 0.187500000000000E+000 0.750000000000000E+000 0.000000000000000E+000
 0.190370748034901E+000 0.885171153579592E+000 0.000000000000000E+000
 0.173219498992632E+000 0.789273026175030E+000 0.000000000000000E+000
 0.125000000000000E+000 0.687500000000000E+000 0.000000000000000E+000
 0.000000000000000E+000 0.687500000000000E+000 0.000000000000000E+000
 0.441080729166667E-001 0.732584635416667E+000 0.000000000000000E+000
 0.625000000000000E-001 0.100000000000000E+001 0.000000000000000E+000
 0.324539302647226E+000 0.874753539998500E+000 0.000000000000000E+000
 0.138239725210285E+000 0.931515391482052E+000 0.000000000000000E+000
 0.218750000000000E+000 0.780050991479902E+000 0.000000000000000E+000
 0.282595248614805E+000 0.815169690490412E+000 0.000000000000000E+000
 0.241894668607517E+000 0.813568527927710E+000 0.000000000000000E+000
 0.259830219207979E+000 0.875750318441249E+000 0.000000000000000E+000
 0.375000000000000E+000 0.687500000000000E+000 0.000000000000000E+000
 0.894072114981556E-001 0.718750000000000E+000 0.000000000000000E+000
 0.156250000000000E+000 0.718750000000000E+000 0.000000000000000E+000
 0.171875000000000E+000 0.671875000000000E+000 0.000000000000000E+000
 0.208984375000000E+000 0.705078125000000E+000 0.000000000000000E+000
 0.187500000000000E+000 0.100000000000000E+001 0.000000000000000E+000
 0.100742481264918E+000 0.901762004578004E+000 0.000000000000000E+000
 0.897955050140944E-001 0.954063112745616E+000 0.000000000000000E+000
 0.454072994832874E-001 0.943019090840959E+000 0.000000000000000E+000
 0.312500000000000E-001 0.978320013898389E+000 0.000000000000000E+000
 0.151802024837252E+000 0.894278844061106E+000 0.000000000000000E+000
 0.312500000000000E+000 0.750000000000000E+000 0.000000000000000E+000
 0.349824395642442E+000 0.812398913150492E+000 0.000000000000000E+000
 0.291845278223558E+000 0.853213315943310E+000 0.000000000000000E+000
 0.312500000000000E+000 0.100000000000000E+001 0.000000000000000E+000
 0.221920040905101E+000 0.857011448773234E+000 0.000000000000000E+000
 0.610875609743251E-001 0.656250000000000E+000 0.000000000000000E+000
 0.575501251937821E-001 0.695518883967223E+000 0.000000000000000E+000
 0.229414059980049E+000 0.912264575939035E+000 0.000000000000000E+000
 0.267409472953924E+000 0.912989160289387E+000 0.000000000000000E+000
 0.247617500704634E+000 0.954276202159214E+000 0.000000000000000E+000
 0.186156415773925E+000 0.932922904662876E+000 0.000000000000000E+000
 0.161177138586098E+000 0.966975254724362E+000 0.000000000000000E+000
 0.281250000000000E+000 0.775106270475024E+000 0.000000000000000E+000
 0.232477697233870E+000 0.641481728091557E+000 0.000000000000000E+000
 0.375000000000000E+000 0.500000000000000E+000 0.000000000000000E+000
 0.343750000000000E+000 0.773669964712841E+000 0.000000000000000E+000
 0.500000000000000E+000 0.836710937419870E+000 0.000000000000000E+000
 0.625000000000000E-001 0.460493798860530E+000 0.000000000000000E+000
 0.225506433867106E-001 0.656250000000000E+000 0.000000000000000E+000
 0.625000000000000E-001 0.578156919744020E+000 0.000000000000000E+000
 0.100683627400278E+000 0.656250000000000E+000 0.000000000000000E+000
 0.808855941873017E-001 0.617548766045778E+000 0.000000000000000E+000
 0.396623706279028E-001 0.612802597169787E+000 0.000000000000000E+000
 0.000000000000000E+000 0.562500000000000E+000 0.000000000000000E+000
 0.209099082089092E+000 0.966015356758449E+000 0.000000000000000E+000
 0.208176344887401E+000 0.668642063067022E+000 0.000000000000000E+000
 0.375000000000000E+000 0.625000000000000E+000 0.000000000000000E+000
 0.281250000000000E+000 0.727693574222975E+000 0.000000000000000E+000
 0.410395729589754E-001 0.531250000000000E+000 0.000000000000000E+000
 0.243044505147503E+000 0.715165207256627E+000 0.000000000000000E+000
 0.427668699245901E+000 0.807527989856971E+000 0.000000000000000E+000
 0.375000000000000E+000 0.100000000000000E+001 0.000000000000000E+000
 0.396556497766215E+000 0.872516538744482E+000 0.000000000000000E+000
 0.125000000000000E+000 0.562500000000000E+000 0.000000000000000E+000
 0.386020873411304E-001 0.491878123024719E+000 0.000000000000000E+000
 0.837862679783012E-001 0.496009823563561E+000 0.000000000000000E+000
 0.181474703505393E+000 0.615400296494607E+000 0.000000000000000E+000
 0.156642498481761E+000 0.640232501518239E+000 0.000000000000000E+000
 0.148741293073547E+000 0.593750000000000E+000 0.000000000000000E+000
 0.198570897886273E+000 0.531250000000000E+000 0.000000000000000E+000
 0.186280074550956E+000 0.572564766212389E+000 0.000000000000000E+000
 0.261115628859886E+000 0.572342169151976E+000 0.000000000000000E+000
 0.223664380580028E+000 0.561200712513239E+000 0.000000000000000E+000
 0.260913847788851E+000 0.504504802962447E+000 0.000000000000000E+000
 0.220403809070327E+000 0.602182935170118E+000 0.000000000000000E+000
 0.280942357260745E+000 0.670965807217831E+000 0.000000000000000E+000
 0.303530083216233E+000 0.699208028468857E+000 0.000000000000000E+000
 0.244300952472090E+000 0.677895460994186E+000 0.000000000000000E+000
 0.278676255979588E+000 0.620116626474426E+000 0.000000000000000E+000
 0.375000000000000E+000 0.562500000000000E+000 0.000000000000000E+000
 0.294783395930685E+000 0.587081428049465E+000 0.000000000000000E+000
 0.296390010773290E+000 0.538188197482711E+000 0.000000000000000E+000
 0.326808615275446E+000 0.623140446700340E+000 0.000000000000000E+000
 0.375000000000000E+000 0.375000000000000E+000 0.000000000000000E+000
 0.341600259444201E+000 0.531250000000000E+000 0.000000000000000E+000
 0.337040360926244E+000 0.581802448479955E+000 0.000000000000000E+000
 0.313454820588085E+000 0.656240056545723E+000 0.000000000000000E+000
 0.244117968371280E+000 0.386059455330322E+000 0.000000000000000E+000
 0.316730626055850E+000 0.471195859600445E+000 0.000000000000000E+000
 0.343361747898823E+000 0.718361747898823E+000 0.000000000000000E+000
 0.387582141166944E+000 0.791354577928815E+000 0.000000000000000E+000
 0.394629419637968E+000 0.831652479273046E+000 0.000000000000000E+000
 0.359139968398398E+000 0.852480346691833E+000 0.000000000000000E+000
 0.449407668689709E+000 0.857876667231944E+000 0.000000000000000E+000
 0.504433083654504E+000 0.918355468709935E+000 0.000000000000000E+000
 0.438910290808154E+000 0.922698775777408E+000 0.000000000000000E+000
 0.487684842153978E+000 0.878322236197629E+000 0.000000000000000E+000
 0.750000000000000E+000 0.100000000000000E+001 0.000000000000000E+000
 0.429264219376497E+000 0.887875644335434E+000 0.000000000000000E+000
 0.297282757956014E+000 0.952697072250340E+000 0.000000000000000E+000
 0.308758340495749E+000 0.912972519020668E+000 0.000000000000000E+000
 0.353713070703707E+000 0.947478792032462E+000 0.000000000000000E+000
 0.343750000000000E+000 0.982091257636542E+000 0.000000000000000E+000
 0.437500000000000E+000 0.100000000000000E+001 0.000000000000000E+000
 0.386196294810884E+000 0.916319687483247E+000 0.000000000000000E+000
[...]
CELL_DATA         4076
SCALARS tdens double 1
LOOKUP_TABLE default
 0.212599345099819E-006
 0.252397364682281E-006
 0.315019730035121E-006
 0.258594959504374E-006
 0.974142667584458E-004
 0.533477110119937E-004
 0.548152407868420E-004
 0.579952307130647E-004
 0.300497994576491E+000
 0.536398531566352E+000
 0.276144641263285E+000
 0.325488480747824E+000
 0.229285734603827E-006
 0.335464156090364E-006
 0.306023705133603E-006
 0.273245106122576E-006
 0.410102698513784E-006
 0.667583722343890E-006
 0.576024479726201E-006
 0.509239484749734E-006
 0.758506854180231E-006
 0.115242407533242E-005
 0.935819613964168E-006
 0.925576393972879E-006
 0.348756756774689E-002
 0.317922856234709E-002
 0.245751024702000E-001
 0.146057335759228E-001
 0.132744325281533E-003
 0.312488367353856E-003
 0.228235568869341E-003
 0.238659866186336E-003
 0.103795389088127E-002
 0.420543673714562E-003
 0.726889772544558E-003
 0.759209414426572E-003
 0.466404557561430E-006
 0.479317373850856E-006
 0.499034019197067E-006
 0.484868910924508E-006
 0.805577563028930E-005
 0.612536539380359E-005
 0.576239238685098E-005
 0.643008025389586E-005
 0.127864606578195E+000
 0.447608327740583E-001
 0.308919854315499E-001
 0.407509268410584E-001
 0.295878481215358E-006
 0.315700530245865E-006
 0.434745894005280E-006
 0.327950936594658E-006
 0.320102249164218E-001
 0.430634435400577E-001
 0.100339556744659E+000
 0.319777702045124E-001
 0.172037223407151E-004
 0.123644230203649E-004
 0.124921675297459E-004
 0.134091319377302E-004
 0.413628176460822E-004
 0.294582352836460E-004
 0.201989071684603E-004
 0.289479674112864E-004
 0.475931198739913E-006
 0.582440537423289E-006
 0.863440408272770E-006
 0.619118955709558E-006
 0.337479959011081E-005
 0.271395116833235E-005
 0.187262960982511E-005
 0.264149313025126E-005
 0.147838405399864E-006
 0.142310232800527E-006
 0.274505644360205E-006
 0.187545925990711E-006
 0.209900588226344E-001
 0.861883793398028E-001
 0.801835166307662E-002
 0.151423400925242E-001
 0.494785502063032E-001
 0.619716581496745E-001
 0.162555939747605E-001
 0.396787684608327E-001
 0.451245455656874E-006
 0.462752394900458E-006
 0.487612368716610E-006
 0.469792301258214E-006
 0.127739926218569E-001
 0.483007807944058E-001
 0.622464332898170E-001
 0.503680097450727E-001
 0.579309616407154E-006
 0.456885308593673E-006
 0.518956931967379E-006
 0.500679325496743E-006
 0.115577572434547E-001
 0.982752938847420E-002
 0.535833357881981E-001
 0.168320377442484E-001
 0.208392627167955E-004
 0.104033828624435E-004
 0.100878498644762E-004
 0.114955534712262E-004
 0.838974498665747E-006
 0.157546852656883E-005
 0.901132380517343E-006
 0.102726052959869E-005
 0.548585143616464E+000
 0.360846042602815E+000
 0.430118817647806E+000
 0.467949045742569E+000
 0.672055920509377E-006
 0.827974482681604E-006
 0.568668059388548E-006
 0.675097014902151E-006
 0.799889899439053E-005
 0.219633522941644E-005
 0.343078740513700E-005
 0.353396947359344E-005
 0.107325638592579E-005
 0.209384610749670E-005
 0.152016661328258E-005
 0.147769845117905E-005
 0.226194864444942E-005
 0.152933398022054E-005
 0.157615944433892E-005
 0.172755667104201E-005
 0.296311078121362E-005
 0.691243564471319E-005
 0.146892720086747E-005
 0.261659856014770E-005
 0.189892330378444E-005
 0.275122247108806E-005
 0.359881128162069E-005
 0.263692599747764E-005
 0.484308241671311E-006
 0.418330435111833E-006
 0.175900489479519E-006
 0.256930824235955E-006
 0.105281781796052E+000
 0.151203224209112E+000
 0.151566359449609E+000
 0.158681132273423E+000
 0.270588269951009E-005
 0.129985166438913E-005
 0.605159240698326E-005
 0.211209439138735E-005
 0.374584929990744E-006
 0.305982740302651E-006
 0.396990561423895E-006
 0.358491813491184E-006
 0.917599547490426E-006
 0.630979050626680E-006
 0.900699865026187E-006
 0.792990634527186E-006
 0.507650159229513E-006
 0.512639671022985E-006
 0.460451489715289E-006
 0.486811381499331E-006
 0.700213224015893E-006
 0.589879820667658E-006
 0.836041180095353E-006
 0.691600688547406E-006
 0.280504767532208E-005
 0.157086222778895E-005
 0.576155149454472E-005
 0.270248774235187E-005
 0.428827559796758E-006
 0.545034606827418E-006
 0.430225869377940E-006
 0.468795693900131E-006
 0.105644618606798E-006
 0.605113410977852E-007
 0.773182821428481E-007
 0.829768954403409E-007
 0.133031532730002E-004
 0.185658505077652E-004
 0.189018407824515E-004
 0.173292607169046E-004
 0.136356212579584E-006
 0.220185985778854E-006
 0.249585650844008E-006
 0.192829048092846E-006
 0.236523744255046E-003
 0.300226605276490E-003
 0.914185096935188E-004
 0.235058499693238E-003
 0.177787961587506E-004
 0.506960810043552E-005
 0.210146819138610E-004
 0.128141062949442E-004
 0.883524818869816E-006
 0.114101094248576E-005
 0.174074090264121E-005
 0.118564182768167E-005
 0.631077774254408E-006
 0.547912357130075E-006
 0.397434166309914E-006
 0.516365275265436E-006
 0.708579310613745E-006
 0.819037181857090E-006
 0.112251155462751E-005
 0.863604095348619E-006
 0.358403787417234E-006
 0.304693220587864E-006
 0.277081740994107E-006
 0.299987398193369E-006
 0.122900570078345E+000
 0.978121608515683E-001
 0.190918024982251E+000
 0.135399030639485E+000
 0.371888946068936E-006
 0.416433505120207E-006
 0.577399344575946E-006
 0.450090671429956E-006
 0.253571956180152E-006
 0.198969889923087E-006
 0.232566306179385E-006
 0.235341428327656E-006
 0.178610603835557E-003
 0.298497296775746E-003
 0.513027401098739E-004
 0.982919379313660E-004
 0.114990861093371E-005
 0.136529989535175E-005
 0.937014123888925E-006
 0.114830491563018E-005
 0.478856572224462E-006
 0.641858790805860E-006
 0.666192097069432E-006
 0.578432115327264E-006
 0.142495921122313E-005
 0.101022289965799E-005
 0.182317764687357E-005
 0.138487269664041E-005
 0.453951947059674E-006
 0.302069925024160E-006
 0.326862416557132E-006
 0.360032033763231E-006
 0.126501883763744E-006
 0.212262795206558E-006
 0.173565874647436E-006
 0.167931677351105E-006
 0.686900030058367E-005
 0.149910352963414E-004
 0.123378863708434E-004
 0.123096917070651E-004
 0.402639223289738E-005
 0.550561436577269E-005
 0.929732556970290E-005
 0.542546560329802E-005
 0.388584763840343E-003
 0.584315656943805E-003
 0.165941846896825E-003
 0.347431915623198E-003
 0.102287982798417E-001
 0.431738913874014E-001
 0.346579789499119E-002
 0.170861460180959E-001
 0.336844080183546E-004
 0.216172144154529E-004
 0.556785163125929E-004
 0.363884382398527E-004
 0.875738708674056E-006
 0.122266130667128E-005
 0.120945914256071E-005
 0.110765069443298E-005
 0.438605694222733E-005
 0.135009079341857E-004
 0.580787867631988E-005
 0.661515954589882E-005
 0.896495653858804E-004
 0.435015235581286E-004
 0.186276727523255E-003
 0.105521814563530E-003
 0.235699917763091E-006
 0.274340010244550E-006
 0.299671551896600E-006
 0.268788147530691E-006
 0.776575658082705E-006
 0.569007131124095E-006
 0.579653029333399E-006
 0.634230430178865E-006
 0.455116017055326E-006
 0.429430530030921E-006
 0.367794630010022E-006
 0.413350635148187E-006
 0.763294134356792E-006
 0.562146957173788E-006
 0.542744109124841E-006
 0.612078140277864E-006
 0.181890036529356E-006
 0.267039984849775E-006
 0.240852299340857E-006
 0.222792073482206E-006
 0.107057389273064E-006
 0.155121459117507E-006
 0.133162370552007E-006
 0.122555962320627E-006
 0.211683847830051E-004
 0.247689486038423E-004
 0.536692937876311E-004
 0.254034622838747E-004
 0.515584458111951E-005
 0.409125319070325E-005
 0.552069723402749E-005
 0.497510089446947E-005
 0.151730068142321E-005
 0.228373567609409E-005
 0.141933547569872E-005
 0.167337875616636E-005
 0.314777780547967E-005
 0.171871341708153E-005
 0.174065897248195E-005
 0.199061365717550E-005
 0.178523014069423E-003
 0.589001716255610E-004
 0.981115399675507E-004
 0.988829087814646E-004
 0.317859493944809E-004
 0.605240467963468E-004
 0.227074826325544E-004
 0.295072013218255E-004
 0.103630253558610E-002
 0.409796553742909E-002
 0.292437870614494E-002
 0.334128155169096E-002
 0.345170676845438E-004
 0.425863647626332E-004
 0.242848245438953E-004
 0.318479956219448E-004
 0.343447879666283E-003
 0.162698310863600E-003
 0.640798568263936E-003
 0.328728017178450E-003
 0.170111954359678E-004
 0.110008717766627E-004
 0.216927898170230E-004
 0.174803412066750E-004
 0.796931212452539E-005
 0.925462761839221E-005
 0.135926291379884E-004
 0.945170700350045E-005
 0.883897046030279E-005
 0.691869554870251E-005
 0.408643297889693E-005
 0.692458921428526E-005
 0.367352675654245E-001
 0.819295255924281E+000
 0.474572492538303E+001
 0.820818119022205E+000
 0.283495729190430E-001
 0.212536724672194E-001
 0.440870627261301E-001
 0.392005000965219E-001
 0.131412723134385E-005
 0.133185498559690E-005
 0.399238193626865E-005
 0.171730308331586E-005
 0.326123125147860E-006
 0.308039130058175E-006
 0.396919850666178E-006
 0.344432737510612E-006
 0.127715973669552E+000
 0.147881977463708E+000
 0.923189026570445E-001
 0.950833930621983E-001
 0.335973930654646E-002
 0.250818058514737E-002
 0.352803799294009E-001
 0.141748628360493E-001
 0.232899874072478E-002
 0.218229475282387E-001
 0.232024825037790E-002
 0.126731538061411E-001
 0.513487654443321E-001
 0.117708986199459E-001
 0.504878362890400E-001
 0.266017728540519E-001
 0.427784076243684E-001
 0.279309276198158E-001
 0.976939909394138E-001
 0.282629449096328E-001
 0.198098586047470E-001
 0.789108214455929E-001
 0.559001928969024E-001
 0.205794675263706E-001
 0.776386186665782E-006
 0.107389682277853E-005
 0.737464707828214E-006
 0.841299250261443E-006
 0.119744155053661E-005
 0.768619726008291E-006
 0.121898175053727E-005
 0.106793330450781E-005
 0.353687624403500E-006
 0.526194907534429E-006
 0.581626279490627E-006
 0.480562613242900E-006
 0.318057152909230E-006
 0.304529380322722E-006
 0.503950474721877E-006
 0.374396961247442E-006
 0.621098911697027E-007
 0.107140366673485E-006
 0.789026659049759E-007
 0.843401256428894E-007
 0.245864519632800E-006
 0.166430824091506E-006
 0.183705923891681E-006
 0.198708477001702E-006
 0.111498337529870E-006
 0.140307452154441E-006
 0.195589938167891E-006
 0.143210173461558E-006
 0.618560761759319E-007
 0.161863123065249E-007
 0.435555814258928E-007
 0.357165936747904E-007
 0.572881209945005E-007
 0.411337114902991E-007
 0.149690950821495E-007
 0.320838475824484E-007
 0.260641950145288E-005
 0.171435616647097E-005
 0.251083356188368E-005
 0.231083173725961E-005
 0.699145518359179E-006
 0.108137988249056E-005
 0.775928211939079E-006
 0.825405580969710E-006
 0.284819699724042E-002
 0.868467548440640E-003
 0.614632232675438E-003
 0.918412660851689E-003
 0.150639588884586E+000
 0.265501310760760E+000
 0.229453240531956E+000
 0.189004394692419E+000
 0.201318941180170E-003
 0.490158502957005E-003
 0.300372492716292E-003
 0.294894313521243E-003
 0.287636597767392E-005
 0.271251345733836E-005
 0.201886823300554E-005
 0.242646087956692E-005
 0.605922780756428E-004
 0.278048867359451E-004
 0.478907299139136E-004
 0.475154314961180E-004
 0.461078549133148E-005
 0.542732452273581E-005
 0.397733062791486E-005
 0.460889131724913E-005
 0.331856397821656E-007
 0.473147177666839E-007
 0.126763833981848E-007
 0.315364258420840E-007
 0.572217922649078E-007
 0.101544981221100E-006
 0.702212362277236E-007
 0.701120993828343E-007
 0.231595124150898E-004
 0.109291898058785E-004
 0.158958178648180E-004
 0.149561336037894E-004
 0.407638439325082E-005
 0.641476494438816E-005
 0.664484199735080E-005
 0.589741500703753E-005
 0.176716483085198E-006
 0.115499727893924E-006
 0.179335489891503E-006
 0.155524276653109E-006
 0.155948860280902E-005
 0.734698981136740E-006
 0.959171777433996E-006
 0.107702384750999E-005
 0.362848967901839E-006
 0.450255173911234E-006
 0.472349760666598E-006
 0.414986246096053E-006
 0.488950379598921E-006
 0.426259194777217E-006
 0.554309141246150E-006
 0.492183101712721E-006
 0.578857256082209E-005
 0.358978908107801E-005
 0.351424117349245E-005
 0.394137725098737E-005
 0.472642707410589E-005
 0.390920840124180E-005
 0.633668044527527E-005
 0.480956154389858E-005
 0.124308526089869E-004
 0.834227301553992E-005
 0.135376783367715E-004
 0.119933924408305E-004
 0.272367526030596E-005
 0.181323893001516E-005
 0.214512032964258E-005
 0.225840531208828E-005
 0.306527199590943E-005
 0.374183643068379E-005
 0.250087352486478E-005
 0.307193315769997E-005
 0.155705925125219E-005
 0.241971940014167E-005
 0.204906727612653E-005
 0.194151754914664E-005
 0.115671114144091E-005
 0.111813860969400E-005
 0.815593737561805E-006
 0.102124934898502E-005
 0.644566851654404E-006
 0.406651406367652E-006
 0.584404014141887E-006
 0.531737005802325E-006
 0.400935814317588E-006
 0.597077481009300E-006
 0.585305504583732E-006
 0.484592601726158E-006
 0.573049843745003E-004
 0.176518580533192E-003
 0.690522727331633E-004
 0.708959595818767E-004
 0.139489537424193E-002
 0.314882875859099E-002
 0.601839440809694E-003
 0.169006837321545E-002
 0.302110056825336E-002
 0.117820912125680E-001
 0.111781504271802E-001
 0.629351907185802E-002
 0.103678808218656E+001
 0.367181901157286E+000
 0.694995269884242E+000
 0.919095614166885E+000
 0.666133247392624E-001
 0.644431943006835E-001
 0.525041409150407E-001
 0.682732856514734E-001
 0.223389342189636E+000
 0.168627282423243E+000
 0.103055922428213E+000
 0.176151048099142E+000
 0.455032363314448E-003
 0.765772682493414E-003
 0.195395136255261E-002
 0.678280535776511E-003
 0.294652871454089E-003
 0.121355545387358E-003
 0.913987512715926E-004
 0.121226360681975E-003
 0.523785531841984E-005
 0.568345165206561E-005
 0.476378311020628E-005
 0.518898784386598E-005
 0.363572340029811E-006
 0.455410861918661E-006
 0.575713309579951E-006
 0.437768658575273E-006
 0.806901920782808E-004
 0.106855804442586E-003
 0.170140542996577E-003
 0.102101026022175E-003
 0.333133207266550E-005
 0.259371460391403E-005
 0.376825475281600E-005
 0.321063023950015E-005
 0.255952876764542E-006
 0.213527655504410E-006
 0.219739443334981E-006
 0.223791563624948E-006
 0.426260221689534E-006
 0.318833264774328E-006
 0.375093575277393E-006
 0.366366560286267E-006
 0.206957370266231E-007
 0.550572706587913E-007
 0.595768671339604E-007
 0.403597473667584E-007
 0.134891044760042E-006
 0.822735256208551E-007
 0.808701121758745E-007
 0.101907253409581E-006
 0.819408480477933E-006
 0.168378963657348E-005
 0.107930843011792E-005
 0.106397160529787E-005
 0.375538482675283E-006
 0.516811835325634E-006
 0.398784271400644E-006
 0.428236025361200E-006
 0.322826609105785E-006
 0.278222241775278E-006
 0.244296273560949E-006
 0.282654307918578E-006
 0.441294566415016E-001
 0.677298907604277E-001
 0.775622988950010E-001
 0.486442925431564E-001
 0.205894845635529E-006
 0.278239221516701E-006
 0.219069801175049E-006
 0.236033873527412E-006
 0.253099401738991E-006
 0.316749510508477E-006
 0.338971739035093E-006
 0.296550925594939E-006
 0.156394375475444E-005
 0.137984662786515E-005
 0.181678781701288E-005
 0.156809741485151E-005
 0.180723557101124E-006
 0.111433856063553E-006
 0.164528069005667E-006
 0.142764207196596E-006
 0.745859735731553E-006
 0.101447436181192E-005
 0.792651491423156E-006
 0.832756003796334E-006
 0.201788856746607E-002
 0.344406614352200E-002
 0.303361891609893E-001
 0.216880369768797E-002
 0.805017510791869E-001
 0.128824984437898E+000
 0.746361551853842E-001
 0.116251356708884E+000
 0.168358375811154E-001
 0.195096157326910E-001
 0.101005016058850E+000
 0.192399252837969E-001
 0.228549180624210E-001
 0.228617501530141E-001
 0.151498985567466E-001
 0.182528669906269E-001
 0.377342238837139E-001
 0.226824916326072E-001
 0.116500895456805E-001
 0.188977664188002E-001
 0.109466550603540E+000
 0.611311080232313E-001
 0.122530444742441E+000
 0.127947901805729E+000
 0.133030341792057E+001
 0.577951469114813E+000
 0.133662210842834E+001
 0.120918108865409E+001
 0.104110638927882E-006
 0.823628210050009E-007
 0.138651756649688E-006
 0.103344310907796E-006
 0.433894682660506E+000
 0.280485355330773E+000
 0.301824906274206E+000
 0.331699871289337E+000
 0.539382729631951E-001
 0.644935902845660E-001
 0.944111676963603E-001
 0.107117650688281E+000
 0.260870026197986E-004
 0.436927839929970E-004
 0.332902808680950E-004
 0.335432275584231E-004
 0.535413825787867E-004
 0.311526848322581E-004
 0.213639083000601E-004
 0.324084902627496E-004
 0.194240143353602E-004
 0.219953160229229E-004
 0.268045419220032E-004
 0.221533498590208E-004
 0.400857348275308E-005
 0.383373014530734E-005
 0.480501329901080E-005
 0.409894501223436E-005
 0.948225622075173E-004
 0.904094678998067E-004
 0.459978275201857E-004
 0.869641782128286E-004
 0.156790619825162E-006
 0.148682495528017E-006
 0.978302800431500E-007
 0.130668575219844E-006
 0.118418071322682E-006
 0.141540113230294E-006
 0.880349542539669E-007
 0.117900246806288E-006
 0.440306538278081E-007
 0.318710509366442E-007
 0.106622804252413E-007
 0.216046480628200E-007
 0.631800911602733E-007
 0.989456952200069E-007
 0.108566584730612E-006
 0.882445390906604E-007
 0.199946478508734E-006
 0.314646115716607E-006
 0.202391527122828E-006
 0.224834571762143E-006
 0.354531918236543E-006
 0.367065373564212E-006
 0.205411859062005E-006
 0.286809362269780E-006
 0.362559339312495E-001
 0.625851195468465E-001
 0.366642433367094E-001
 0.523917234413588E-001
 0.721452468549754E-001
 0.180051845775223E-001
 0.395428969782758E-001
 0.331416728929659E-001
 0.181216350081628E-001
 0.485084407682377E-001
 0.513187200686728E-001
 0.210803516519170E-001
 0.259577919853465E-001
 0.291193177671410E-001
 0.119863797102031E-001
 0.190455956396074E-001
 0.190168368967257E-002
 0.191635983537335E-002
 0.155985726637767E-001
 0.849935770340336E-002
 0.196665745168781E-001
 0.234278254447923E-002
 0.224045780396792E-002
 0.115589344434936E-001
 0.158733623964356E+000
 0.195748966355808E+000
 0.446775618105199E+000
 0.132623807084343E+000
 0.241996434917567E+000
 0.122270140206555E+000
 0.145832458427225E+000
 0.970840436397814E-001
 0.879282741784799E-002
 0.324834280983167E-001
 0.962654961727193E-002
 0.483650979069402E-001
 0.935689070739604E-001
 0.108478309484780E+000
 0.125328572365739E+000
 0.117267217066630E+000
 0.183155436282601E+000
 0.168857748428923E+000
 0.190279313756498E+000
 0.167795208243957E+000
 0.199922330890833E+000
 0.224708966986633E+000
 0.341960484166179E+000
 0.189461365275132E+000
 0.144414809069463E+000
 0.119857573748666E+000
 0.119090678028445E+000
 0.126049696355444E+000
 0.250981134000435E+000
 0.336368821112845E+000
 0.202901865717994E+000
 0.202439448772586E+000
 0.582536778078319E-001
 0.198804525067025E-001
 0.583813278452954E-001
 0.304946878280655E-001
 0.174968711398113E+001
 0.713888776976418E+000
 0.153548601136944E+001
 0.123357681552541E+001
 0.698789742651204E-001
 0.115152481332477E+000
 0.747196593124263E-001
 0.110129025510579E+000
 0.169999099505354E+000
 0.155721321372845E+000
 0.124381351370941E+000
 0.167448936154443E+000
 0.419414685329132E-001
 0.823135210342381E-001
 0.276721815144688E-001
 0.842967525468653E-001
 0.203393134052224E+000
 0.121737078929057E+000
 0.222806277171400E+000
 0.296000385167065E+000
 0.370969554149042E-001
 0.353564117573243E-001
 0.286668106684113E-001
 0.268936198348217E-001
 0.405704184262546E-001
 0.138213560102457E+000
 0.569995201076663E-001
 0.365416105036102E-001
 0.438732530990820E+000
 0.454581611283807E+000
 0.386438507190707E+000
 0.395376617275295E+000
 0.210493259507126E+000
 0.995192637318067E-001
 0.148657044612105E+000
 0.139382674319392E+000
 0.361577949938826E+000
 0.426485677027234E+000
 0.278834501979771E+000
 0.281279032590546E+000
 0.598102791127432E+000
 0.406361653761688E+000
 0.144397147800766E+001
 0.873082761904234E+000
 0.206222686396151E+000
 0.202981325657785E+000
 0.267390520368179E+000
 0.219635378205253E+000
 0.237028835222614E+000
 0.270439306827324E+000
 0.356755881402779E+000
 0.279037369744978E+000
 0.218685856480545E+000
 0.180630819614695E+000
 0.207769439434154E+000
 0.211919934332333E+000
 0.921612655305454E+000
 0.156327079771325E+001
 0.601810066881224E+000
 0.643257397226331E+000
 0.992014574203362E-001
 0.138364559878761E+000