# vtk DataFile Version 3.0
Unstructured Grid
ASCII
DATASET UNSTRUCTURED_GRID
FIELD FieldData 1
TIME 1 1 float
  0.392085E+02
POINTS         2102 double
 0.000000000000000E+000 0.000000000000000E+000 0.000000000000000E+000
 0.100000000000000E+001 0.000000000000000E+000 0.000000000000000E+000
 0.100000000000000E+001 0.100000000000000E+001 0.000000000000000E+000
 0.000000000000000E+000 0.100000000000000E+001 0.000000000000000E+000
 0.125000000000000E+000 0.250000000000000E+000 0.000000000000000E+000
 0.375000000000000E+000 0.250000000000000E+000 0.000000000000000E+000
 0.375000000000000E+000 0.750000000000000E+000 0.000000000000000E+000
 0.125000000000000E+000 0.750000000000000E+000 0.000000000000000E+000
 0.625000000000000E+000 0.250000000000000E+000 0.000000000000000E+000
 0.875000000000000E+000 0.250000000000000E+000 0.000000000000000E+000
 0.875000000000000E+000 0.750000000000000E+000 0.000000000000000E+000
 0.625000000000000E+000 0.750000000000000E+000 0.000000000000000E+000
 0.100000000000000E+001 0.500000000000000E+000 0.000000000000000E+000
 0.000000000000000E+000 0.500000000000000E+000 0.000000000000000E+000
 0.500000000000000E+000 0.000000000000000E+000 0.000000000000000E+000
 0.125000000000000E+000 0.500000000000000E+000 0.000000000000000E+000
 0.000000000000000E+000 0.750000000000000E+000 0.000000000000000E+000
 0.000000000000000E+000 0.250000000000000E+000 0.000000000000000E+000
 0.000000000000000E+000 0.875000000000000E+000 0.000000000000000E+000
 0.000000000000000E+000 0.125000000000000E+000 0.000000000000000E+000
 0.000000000000000E+000 0.812500000000000E+000 0.000000000000000E+000
 0.625000000000000E-001 0.812500000000000E+000 0.000000000000000E+000
 0.125000000000000E+000 0.375000000000000E+000 0.000000000000000E+000
 0.000000000000000E+000 0.375000000000000E+000 0.000000000000000E+000
 0.125000000000000E+000 0.625000000000000E+000 0.000000000000000E+000
 0.312500000000000E-001 0.781250000000000E+000 0.000000000000000E+000
 0.000000000000000E+000 0.625000000000000E+000 0.000000000000000E+000
 0.781250000000000E-001 0.765625000000000E+000 0.000000000000000E+000
 0.312500000000000E-001 0.843750000000000E+000 0.000000000000000E+000
 0.500000000000000E+000 0.100000000000000E+001 0.000000000000000E+000
 0.852352799227800E-001 0.850726351351351E+000 0.000000000000000E+000
 0.531250000000000E-001 0.896875000000000E+000 0.000000000000000E+000
 0.128125000000000E+000 0.862500000000000E+000 0.000000000000000E+000
 0.125000000000000E+000 0.100000000000000E+001 0.000000000000000E+000
 0.250000000000000E+000 0.750000000000000E+000 0.000000000000000E+000
 0.000000000000000E+000 0.937500000000000E+000 0.000000000000000E+000
 0.250000000000000E+000 0.100000000000000E+001 0.000000000000000E+000
 0.117915518486872E+000 0.805415518486872E+000 0.000000000000000E+000
 0.201656717908302E+000 0.819893736067327E+000 0.000000000000000E+000
 0.181985294117647E-001 0.906250000000000E+000 0.000000000000000E+000
 0.157158578892515E+000 0.827852167423944E+000 0.000000000000000E+000
 0.187500000000000E+000 0.750000000000000E+000 0.000000000000000E+000
 0.190370748034901E+000 0.885171153579592E+000 0.000000000000000E+000
 0.173219498992632E+000 0.789273026175030E+000 0.000000000000000E+000
 0.125000000000000E+000 0.687500000000000E+000 0.000000000000000E+000
 0.000000000000000E+000 0.687500000000000E+000 0.000000000000000E+000
 0.441080729166667E-001 0.732584635416667E+000 0.000000000000000E+000
 0.625000000000000E-001 0.100000000000000E+001 0.000000000000000E+000
 0.324539302647226E+000 0.874753539998500E+000 0.000000000000000E+000
 0.138239725210285E+000 0.931515391482052E+000 0.000000000000000E+000
 0.218750000000000E+000 0.780050991479902E+000 0.000000000000000E+000
 0.282595248614805E+000 0.815169690490412E+000 0.000000000000000E+000
 0.241894668607517E+000 0.813568527927710E+000 0.000000000000000E+000
 0.259830219207979E+000 0.875750318441249E+000 0.000000000000000E+000
 0.375000000000000E+000 0.687500000000000E+000 0.000000000000000E+000
 0.894072114981556E-001 0.718750000000000E+000 0.000000000000000E+000
 0.156250000000000E+000 0.718750000000000E+000 0.000000000000000E+000
 0.171875000000000E+000 0.671875000000000E+000 0.000000000000000E+000
 0.208984375000000E+000 0.705078125000000E+000 0.000000000000000E+000
 0.187500000000000E+000 0.100000000000000E+001 0.000000000000000E+000
 0.100742481264918E+000 0.901762004578004E+000 0.000000000000000E+000
 0.897955050140944E-001 0.954063112745616E+000 0.000000000000000E+000
 0.454072994832874E-001 0.943019090840959E+000 0.000000000000000E+000
 0.312500000000000E-001 0.978320013898389E+000 0.000000000000000E+000
 0.151802024837252E+000 0.894278844061106E+000 0.000000000000000E+000
 0.312500000000000E+000 0.750000000000000E+000 0.000000000000000E+000
 0.349824395642442E+000 0.812398913150492E+000 0.000000000000000E+000
 0.291845278223558E+000 0.853213315943310E+000 0.000000000000000E+000
 0.312500000000000E+000 0.100000000000000E+001 0.000000000000000E+000
 0.221920040905101E+000 0.857011448773234E+000 0.000000000000000E+000
 0.610875609743251E-001 0.656250000000000E+000 0.000000000000000E+000
 0.575501251937821E-001 0.695518883967223E+000 0.000000000000000E+000
 0.229414059980049E+000 0.912264575939035E+000 0.000000000000000E+000
 0.267409472953924E+000 0.912989160289387E+000 0.000000000000000E+000
 0.247617500704634E+000 0.954276202159214E+000 0.000000000000000E+000
 0.186156415773925E+000 0.932922904662876E+000 0.000000000000000E+000
 0.161177138586098E+000 0.966975254724362E+000 0.000000000000000E+000
 0.281250000000000E+000 0.775106270475024E+000 0.000000000000000E+000
 0.232477697233870E+000 0.641481728091557E+000 0.000000000000000E+000
 0.375000000000000E+000 0.500000000000000E+000 0.000000000000000E+000
 0.343750000000000E+000 0.773669964712841E+000 0.000000000000000E+000
 0.500000000000000E+000 0.836710937419870E+000 0.000000000000000E+000
 0.625000000000000E-001 0.460493798860530E+000 0.000000000000000E+000
 0.225506433867106E-001 0.656250000000000E+000 0.000000000000000E+000
 0.625000000000000E-001 0.578156919744020E+000 0.000000000000000E+000
 0.100683627400278E+000 0.656250000000000E+000 0.000000000000000E+000
 0.808855941873017E-001 0.617548766045778E+000 0.000000000000000E+000
 0.396623706279028E-001 0.612802597169787E+000 0.000000000000000E+000
 0.000000000000000E+000 0.562500000000000E+000 0.000000000000000E+000
 0.209099082089092E+000 0.966015356758449E+000 0.000000000000000E+000
 0.208176344887401E+000 0.668642063067022E+000 0.000000000000000E+000
 0.375000000000000E+000 0.625000000000000E+000 0.000000000000000E+000
 0.281250000000000E+000 0.727693574222975E+000 0.000000000000000E+000
 0.410395729589754E-001 0.531250000000000E+000 0.000000000000000E+000
 0.243044505147503E+000 0.715165207256627E+000 0.000000000000000E+000
 0.427668699245901E+000 0.807527989856971E+000 0.000000000000000E+000
 0.375000000000000E+000 0.100000000000000E+001 0.000000000000000E+000
 0.396556497766215E+000 0.872516538744482E+000 0.000000000000000E+000
 0.125000000000000E+000 0.562500000000000E+000 0.000000000000000E+000
 0.386020873411304E-001 0.491878123024719E+000 0.000000000000000E+000
 0.837862679783012E-001 0.496009823563561E+000 0.000000000000000E+000
 0.181474703505393E+000 0.615400296494607E+000 0.000000000000000E+000
 0.156642498481761E+000 0.640232501518239E+000 0.000000000000000E+000
 0.148741293073547E+000 0.593750000000000E+000 0.000000000000000E+000
 0.198570897886273E+000 0.531250000000000E+000 0.000000000000000E+000
 0.186280074550956E+000 0.572564766212389E+000 0.000000000000000E+000
 0.261115628859886E+000 0.572342169151976E+000 0.000000000000000E+000
 0.223664380580028E+000 0.561200712513239E+000 0.000000000000000E+000
 0.260913847788851E+000 0.504504802962447E+000 0.000000000000000E+000
 0.220403809070327E+000 0.602182935170118E+000 0.000000000000000E+000
 0.280942357260745E+000 0.670965807217831E+000 0.000000000000000E+000
 0.303530083216233E+000 0.699208028468857E+000 0.000000000000000E+000
 0.244300952472090E+000 0.677895460994186E+000 0.000000000000000E+000
 0.278676255979588E+000 0.620116626474426E+000 0.000000000000000E+000
 0.375000000000000E+000 0.562500000000000E+000 0.000000000000000E+000
 0.294783395930685E+000 0.587081428049465E+000 0.000000000000000E+000
 0.296390010773290E+000 0.538188197482711E+000 0.000000000000000E+000
 0.326808615275446E+000 0.623140446700340E+000 0.000000000000000E+000
 0.375000000000000E+000 0.375000000000000E+000 0.000000000000000E+000
 0.341600259444201E+000 0.531250000000000E+000 0.000000000000000E+000
 0.337040360926244E+000 0.581802448479955E+000 0.000000000000000E+000
 0.313454820588085E+000 0.656240056545723E+000 0.000000000000000E+000
 0.244117968371280E+000 0.386059455330322E+000 0.000000000000000E+000
 0.316730626055850E+000 0.471195859600445E+000 0.000000000000000E+000
 0.343361747898823E+000 0.718361747898823E+000 0.000000000000000E+000
 0.387582141166944E+000 0.791354577928815E+000 0.000000000000000E+000
 0.394629419637968E+000 0.831652479273046E+000 0.000000000000000E+000
 0.359139968398398E+000 0.852480346691833E+000 0.000000000000000E+000
 0.449407668689709E+000 0.857876667231944E+000 0.000000000000000E+000
 0.504433083654504E+000 0.918355468709935E+000 0.000000000000000E+000
 0.438910290808154E+000 0.922698775777408E+000 0.000000000000000E+000
 0.487684842153978E+000 0.878322236197629E+000 0.000000000000000E+000
 0.750000000000000E+000 0.100000000000000E+001 0.000000000000000E+000
 0.429264219376497E+000 0.887875644335434E+000 0.000000000000000E+000
 0.297282757956014E+000 0.952697072250340E+000 0.000000000000000E+000
 0.308758340495749E+000 0.912972519020668E+000 0.000000000000000E+000
 0.353713070703707E+000 0.947478792032462E+000 0.000000000000000E+000
 0.343750000000000E+000 0.982091257636542E+000 0.000000000000000E+000
 0.437500000000000E+000 0.100000000000000E+001 0.000000000000000E+000
 0.386196294810884E+000 0.916319687483247E+000 0.000000000000000E+000
[...]
CELL_DATA         4076
SCALARS tdens double 1
LOOKUP_TABLE default
 0.537364721304707E-011
 0.638120309637922E-011
 0.805143204099334E-011
 0.656165370397355E-011
 0.395275614937446E-008
 0.205165183596107E-008
 0.202952144725809E-008
 0.219043267771414E-008
 0.122043614092532E+000
 0.689680848411670E+000
 0.149823003190516E-001
 0.276967822823300E+000
 0.573058287494415E-011
 0.853255152775433E-011
 0.765580813437501E-011
 0.686910659648103E-011
 0.102713848179129E-010
 0.172433567064403E-010
 0.144795918203249E-010
 0.127911777623240E-010
 0.193107446691383E-010
 0.298256362106198E-010
 0.236747044937110E-010
 0.236569622338078E-010
 0.240263604388883E-002
 0.225791065539266E-002
 0.265450407726803E-001
 0.150739143245762E-001
 0.649420008209090E-008
 0.188704550654013E-007
 0.122820999343806E-007
 0.131689268009407E-007
 0.832431331750785E-007
 0.260781117783465E-007
 0.520284146778722E-007
 0.557699175674725E-007
 0.118962980527915E-010
 0.121419851396955E-010
 0.127102708003705E-010
 0.123330218936458E-010
 0.249078870232300E-009
 0.186845774925741E-009
 0.174223210314616E-009
 0.195455811297014E-009
 0.272867271782492E-002
 0.573627819888660E-003
 0.153657197219159E-002
 0.649232819138945E-003
 0.770028819884022E-011
 0.819255880665233E-011
 0.114214249041827E-010
 0.853737139802261E-011
 0.278632423180966E-002
 0.534619829362322E-002
 0.188836895326042E+000
 0.136711750368902E-001
 0.611644938748280E-009
 0.420272989083419E-009
 0.424084859643289E-009
 0.458303013933342E-009
 0.152481084630865E-008
 0.958601537543290E-009
 0.673220821757503E-009
 0.980589429878209E-009
 0.119192087016466E-010
 0.146572857509844E-010
 0.221261498657933E-010
 0.156226810754691E-010
 0.958793726464537E-010
 0.773639555073012E-010
 0.522251538415248E-010
 0.752453671546080E-010
 0.367241346733164E-011
 0.353347547488084E-011
 0.699064185587733E-011
 0.467287230590926E-011
 0.693749028887726E-005
 0.140377200529398E-003
 0.119036769404890E-005
 0.430345904880315E-005
 0.357068233111179E-001
 0.816198417492377E-001
 0.118918128070614E-001
 0.192197354435171E-001
 0.114336334082483E-010
 0.116340652017196E-010
 0.123361816975901E-010
 0.118645424599132E-010
 0.143986351000632E-001
 0.562406027143941E-001
 0.972676842403461E-001
 0.452576465072565E-001
 0.148686666084786E-010
 0.116100574418826E-010
 0.131912084025793E-010
 0.127686644564396E-010
 0.121494808097801E-001
 0.250105492216908E-002
 0.679608649048382E-001
 0.208802876136655E-001
 0.693583985187102E-009
 0.335004299106721E-009
 0.318450951041739E-009
 0.366286003225116E-009
 0.220020090075076E-010
 0.425747976398135E-010
 0.238781766819954E-010
 0.272092672662409E-010
 0.116452409733336E+001
 0.524868306279396E-001
 0.193704945290215E+000
 0.385453797617886E+000
 0.168995609760437E-010
 0.209399161549797E-010
 0.142123654598800E-010
 0.169489783834857E-010
 0.245839319334323E-009
 0.594914107173508E-010
 0.962061803671373E-010
 0.988673911587589E-010
 0.282171307752041E-010
 0.570592147727347E-010
 0.404302197171357E-010
 0.394571054600376E-010
 0.645219591799986E-010
 0.428081969283146E-010
 0.439680646284402E-010
 0.483880362426496E-010
 0.843799142792040E-010
 0.216139507977282E-009
 0.382288662158231E-010
 0.742115816363226E-010
 0.524203269415213E-010
 0.767275942317118E-010
 0.102081178152930E-009
 0.735193266318577E-010
 0.136085669290908E-010
 0.112492509365437E-010
 0.437419191165726E-011
 0.666525187639797E-011
 0.206834697130489E+000
 0.521513787825552E-001
 0.301519915992250E+000
 0.518301334074489E+000
 0.748499534385880E-010
 0.328483285003310E-010
 0.181058464762492E-009
 0.568533758959747E-010
 0.957013699449304E-011
 0.779974982062965E-011
 0.101099422604647E-010
 0.914372439646075E-011
 0.235302888527427E-010
 0.158806110333539E-010
 0.228465485372400E-010
 0.201457690076857E-010
 0.127315628433264E-010
 0.129423553052795E-010
 0.115383108748566E-010
 0.122288062004875E-010
 0.180880301862638E-010
 0.150468331939406E-010
 0.215823824956634E-010
 0.177769859358237E-010
 0.773040337055971E-010
 0.417194911868384E-010
 0.169639363605987E-009
 0.742051945349036E-010
 0.109249568466424E-010
 0.140216906443937E-010
 0.110216282354239E-010
 0.119869378189041E-010
 0.269173700138102E-011
 0.153090494549638E-011
 0.195322415963212E-011
 0.210248417080268E-011
 0.452575242462597E-009
 0.657884845017119E-009
 0.674797451718942E-009
 0.613927917772264E-009
 0.347021667980186E-011
 0.568023730755223E-011
 0.643196302369526E-011
 0.494892113764141E-011
 0.128953985327474E-007
 0.180389792792499E-007
 0.400927349404723E-008
 0.129158396285278E-007
 0.526463408836018E-009
 0.144533421899830E-009
 0.678036457863163E-009
 0.383128861201161E-009
 0.231043399896957E-010
 0.299581845499409E-010
 0.470275844833423E-010
 0.313272927403641E-010
 0.165879748662298E-010
 0.144327297645593E-010
 0.103340142590097E-010
 0.135569088910763E-010
 0.188662553272588E-010
 0.217841055628655E-010
 0.303765736402265E-010
 0.230627807336326E-010
 0.918301911019506E-011
 0.783432545449057E-011
 0.707065762101961E-011
 0.768303346340040E-011
 0.140925401915393E+000
 0.703658005097488E-001
 0.229937009486717E+000
 0.189318380937497E+000
 0.963312579551308E-011
 0.107319121168344E-010
 0.151010656234070E-010
 0.116556693733252E-010
 0.650915350796344E-011
 0.507442564641404E-011
 0.592707585007255E-011
 0.601450618327764E-011
 0.764745171982304E-008
 0.131614102269173E-007
 0.161655953563635E-008
 0.314007004010686E-008
 0.314516145671079E-010
 0.375903014064498E-010
 0.252752534875875E-010
 0.313560824709629E-010
 0.123278604917557E-010
 0.166399965068914E-010
 0.174107004533843E-010
 0.150118020941776E-010
 0.387398958760784E-010
 0.269321743970868E-010
 0.496188977832946E-010
 0.375330038069133E-010
 0.119460038954074E-010
 0.787555023624233E-011
 0.849933804398615E-011
 0.939656320826613E-011
 0.320088497489979E-011
 0.540164783334364E-011
 0.441197587361539E-011
 0.426471862328084E-011
 0.199647652669684E-009
 0.446483026947268E-009
 0.370305286465933E-009
 0.369372899518321E-009
 0.117828093410115E-009
 0.160997656951791E-009
 0.281199016732986E-009
 0.158628929447387E-009
 0.169448699116043E-007
 0.261159071049012E-007
 0.542602043185077E-008
 0.123615471963758E-007
 0.109838966841847E-001
 0.500384071018077E-001
 0.243378544176181E-002
 0.181290810939969E-001
 0.110964265280859E-008
 0.676969710931077E-009
 0.180546734067668E-008
 0.118552852022392E-008
 0.237260781303416E-010
 0.335841822355481E-010
 0.333451009279610E-010
 0.304055107578681E-010
 0.124463438216944E-009
 0.402134986907043E-009
 0.167840869320986E-009
 0.190811885177071E-009
 0.283252543696532E-008
 0.133863373785599E-008
 0.615345393578244E-008
 0.332064778160426E-008
 0.583124523276008E-011
 0.678621765183799E-011
 0.741203203110052E-011
 0.664839085490289E-011
 0.198954814922546E-010
 0.144350001516366E-010
 0.146169262684676E-010
 0.160958602189921E-010
 0.113570501269361E-010
 0.107087366726606E-010
 0.911621724143519E-011
 0.102785117793445E-010
 0.192318571104529E-010
 0.140817813270457E-010
 0.135417661013510E-010
 0.153259649494864E-010
 0.467483191463006E-011
 0.690049425617363E-011
 0.623743887102663E-011
 0.575642124222018E-011
 0.270802606471468E-011
 0.394420674228926E-011
 0.339452701271157E-011
 0.311372631998202E-011
 0.766774664272072E-009
 0.907755487850607E-009
 0.222303083850461E-008
 0.933400637389836E-009
 0.158732489004535E-009
 0.123391949997252E-009
 0.171626855456264E-009
 0.153026147491210E-009
 0.425539616899921E-010
 0.658414190463676E-010
 0.396210573897611E-010
 0.470491715339989E-010
 0.894179498864914E-010
 0.478242965977149E-010
 0.481314765739621E-010
 0.552298416103965E-010
 0.771387910826139E-008
 0.209157447371127E-008
 0.336023344663565E-008
 0.358593208290695E-008
 0.983092157671173E-009
 0.193921134647978E-008
 0.707376602109513E-009
 0.909020171799798E-009
 0.899058358018359E-007
 0.710134097497218E-006
 0.423485606388652E-006
 0.561868743079019E-006
 0.122471679368953E-008
 0.160800356661168E-008
 0.867066558420121E-009
 0.114781502927784E-008
 0.157299482396865E-007
 0.547401122937777E-008
 0.243712275070964E-007
 0.124762820062849E-007
 0.579760250635992E-009
 0.355769993543853E-009
 0.728830768100977E-009
 0.594566998923513E-009
 0.257128861526458E-009
 0.300169867867719E-009
 0.460295295408240E-009
 0.306703007793381E-009
 0.266572303656355E-009
 0.209503429558218E-009
 0.119459265958577E-009
 0.210321251125886E-009
 0.353536052567529E-005
 0.317452730142326E-002
 0.758039239590654E+001
 0.277887921187814E-002
 0.595935186331574E-001
 0.726836144441105E-004
 0.806351832895198E-001
 0.396730160542376E-001
 0.343175743957546E-010
 0.344398625745813E-010
 0.111502296927937E-009
 0.449735380183841E-010
 0.806875478364021E-011
 0.762047278009689E-011
 0.984307386792716E-011
 0.852317348438638E-011
 0.614479259450456E-001
 0.455210824106195E+000
 0.307572165085963E+000
 0.411351823622981E+000
 0.313202142837288E-002
 0.257545449099818E-002
 0.323528835490682E-001
 0.137640817113412E-001
 0.237204703480513E-002
 0.228319217993839E-001
 0.229860723289207E-002
 0.128287901713872E-001
 0.603382545638173E-001
 0.120592601857117E-001
 0.468312692467140E-001
 0.179516344251836E-001
 0.174921452515250E-001
 0.529051940248908E-002
 0.186371855962051E+000
 0.931383710230424E-002
 0.159966240656451E-001
 0.187527065982813E-001
 0.572273508756457E-001
 0.856750361674934E-002
 0.209692193516370E-010
 0.294807344006078E-010
 0.198425524107511E-010
 0.227806873511885E-010
 0.326585965945179E-010
 0.205400214593241E-010
 0.331103460821594E-010
 0.290114332396803E-010
 0.924671839806473E-011
 0.139094230235434E-010
 0.154625978089130E-010
 0.127211557041385E-010
 0.827055508909270E-011
 0.794737167993800E-011
 0.133763851358303E-010
 0.979657729192894E-011
 0.157058666851518E-011
 0.273316613814754E-011
 0.199641470804001E-011
 0.213969335760138E-011
 0.633149676475897E-011
 0.426715893821073E-011
 0.469274029516397E-011
 0.508951415481359E-011
 0.283452446922818E-011
 0.359459362599906E-011
 0.504136232520695E-011
 0.366892781304730E-011
 0.155757074817216E-011
 0.100000000000000E-011
 0.109502939785550E-011
 0.100000000000000E-011
 0.143973480390151E-011
 0.103436387359056E-011
 0.100000000000000E-011
 0.100000000000000E-011
 0.753207173669660E-010
 0.482091759846649E-010
 0.720259375046554E-010
 0.664115513179220E-010
 0.187057331827003E-010
 0.295244027749147E-010
 0.209244086877947E-010
 0.222240270022156E-010
 0.524462493308344E-006
 0.761819923395478E-007
 0.461810144233400E-007
 0.829552532654788E-007
 0.180280332602860E+000
 0.472155586131362E+000
 0.303299502916496E+000
 0.252163137784769E+000
 0.103351533734866E-007
 0.310024036007453E-007
 0.171375522096861E-007
 0.166034692535975E-007
 0.838332165953338E-010
 0.782111927094699E-010
 0.570108758788544E-010
 0.694156814492202E-010
 0.254027660849749E-008
 0.102600251945977E-008
 0.189384701467186E-008
 0.190845772119503E-008
 0.140823740682163E-009
 0.168370130046964E-009
 0.119851478234869E-009
 0.140867168342414E-009
 0.100000000000000E-011
 0.117303290704508E-011
 0.100000000000000E-011
 0.100000000000000E-011
 0.141907501508418E-011
 0.252000129465360E-011
 0.174202947745266E-011
 0.173951762258231E-011
 0.761227813744360E-009
 0.343185067007910E-009
 0.499905981518813E-009
 0.472228124950807E-009
 0.121752185484150E-009
 0.196040811069351E-009
 0.205925281484700E-009
 0.181318932715540E-009
 0.437575320582398E-011
 0.286220315313673E-011
 0.444427222916478E-011
 0.385250957297496E-011
 0.444412206949401E-010
 0.185516667833755E-010
 0.264564433233230E-010
 0.290594019721255E-010
 0.898546533137492E-011
 0.111858058104709E-010
 0.117687895534186E-010
 0.103059820051220E-010
 0.121752899405425E-010
 0.106049866777233E-010
 0.138826563850913E-010
 0.122728454480737E-010
 0.175921234065339E-009
 0.106453971688684E-009
 0.103177106347898E-009
 0.116396070218082E-009
 0.144257037955831E-009
 0.117076233825584E-009
 0.197199672071069E-009
 0.146639815562098E-009
 0.418104883972443E-009
 0.269022586475379E-009
 0.456266138752312E-009
 0.404296229751860E-009
 0.791281233824033E-010
 0.508331849052017E-010
 0.612571288075149E-010
 0.647100592997479E-010
 0.903020408051631E-010
 0.112154227917544E-009
 0.725053468612534E-010
 0.905546781203869E-010
 0.435971305559805E-010
 0.698718040551086E-010
 0.584674844626488E-010
 0.553298617037645E-010
 0.318421698959798E-010
 0.306686885553449E-010
 0.220086843923645E-010
 0.279208723108501E-010
 0.171095503168362E-010
 0.106137498065253E-010
 0.155007411298837E-010
 0.140176023609746E-010
 0.104792215301437E-010
 0.158931173817817E-010
 0.155439988418214E-010
 0.128156616286638E-010
 0.210281566698879E-008
 0.807603461723203E-008
 0.275251037797349E-008
 0.278192238292597E-008
 0.106642650604505E-006
 0.814181662021872E-006
 0.414740915993892E-007
 0.187275688013424E-006
 0.191025812049118E-002
 0.111054137623860E-001
 0.138169311377593E-001
 0.461111107029086E-002
 0.169889471973667E+001
 0.536867914854585E-001
 0.158549529496809E+001
 0.178790897957182E+001
 0.112576244725307E+000
 0.325065905052516E-001
 0.618953826996673E-001
 0.105112347530710E+000
 0.786901457838201E+000
 0.647657111184768E-001
 0.351447072139636E+000
 0.331201332033845E+000
 0.281114016606089E-007
 0.589222698404804E-007
 0.186766646462704E-006
 0.501869709690044E-007
 0.176083344200871E-007
 0.585966275312108E-008
 0.407810900737861E-008
 0.581116539691874E-008
 0.160336951495294E-009
 0.174754823883972E-009
 0.143642446348093E-009
 0.158453649873427E-009
 0.915035690068269E-011
 0.125160964634637E-010
 0.154427845198466E-010
 0.111163248210148E-010
 0.353420811951184E-008
 0.498037684114790E-008
 0.850692689697737E-008
 0.467347114170119E-008
 0.987673143769470E-010
 0.753237333671327E-010
 0.113027195540257E-009
 0.950270537332972E-010
 0.633321780015524E-011
 0.528402295238247E-011
 0.544204723624473E-011
 0.553958034123272E-011
 0.105848248259577E-010
 0.789225626949492E-011
 0.930804084515183E-011
 0.907892083039564E-011
 0.100000000000000E-011
 0.136499095788022E-011
 0.147594407702303E-011
 0.100000000000000E-011
 0.335421527906224E-011
 0.203990952030272E-011
 0.200788270760454E-011
 0.252954936249027E-011
 0.207287850166850E-010
 0.455438296017483E-010
 0.275300489317401E-010
 0.271100547115802E-010
 0.936724882992749E-011
 0.129344365001960E-010
 0.992064898444214E-011
 0.106825588923159E-010
 0.800268825871166E-011
 0.688597483657773E-011
 0.605393906724508E-011
 0.700155776212541E-011
 0.104491177288800E-001
 0.113150418022875E+000
 0.135930140238024E-001
 0.150343677080076E-001
 0.512743911177452E-011
 0.693426520285542E-011
 0.543958508088434E-011
 0.586962633599044E-011
 0.627812622861673E-011
 0.788149509097200E-011
 0.841742815840343E-011
 0.736469260329998E-011
 0.434841656790505E-010
 0.382694562271180E-010
 0.513696710613608E-010
 0.437145895121238E-010
 0.448218330569162E-011
 0.276241461567310E-011
 0.408870899568092E-011
 0.354296966645948E-011
 0.200122949442147E-010
 0.276192252915488E-010
 0.212404320663016E-010
 0.224156534257955E-010
 0.122347572202401E-006
 0.276285236610694E-006
 0.328877132625254E-005
 0.140319700844966E-006
 0.207865591976729E+000
 0.422992554178922E-001
 0.315827500912604E-001
 0.417253497997361E-001
 0.688058881927360E-005
 0.676466585759354E-004
 0.100968577830685E-002
 0.250631339717389E-004
 0.128256468231313E-001
 0.315131855268434E-001
 0.330297154282828E-002
 0.422555918157346E-002
 0.306228802547494E-001
 0.261640264380103E-001
 0.142850510935559E-001
 0.211254785280651E-001
 0.242924813737975E+000
 0.111631033110714E+000
 0.185351891587791E+000
 0.161450969616805E+000
 0.205736670462115E+001
 0.461844062435979E+000
 0.308148789566874E+001
 0.151864531541454E+001
 0.259459770179415E-011
 0.205240000655159E-011
 0.347440326729587E-011
 0.258109244873004E-011
 0.223403230718703E+000
 0.231365714381545E+000
 0.582387134100062E+000
 0.252017763147510E+000
 0.456900802912349E-001
 0.417204077417042E-001
 0.177427656791402E-001
 0.339805570001602E-001
 0.967050881080286E-009
 0.173723742398761E-008
 0.127307752095984E-008
 0.128372043364142E-008
 0.222497081892780E-008
 0.119137504822665E-008
 0.774955253753418E-009
 0.124655570126953E-008
 0.692718188396506E-009
 0.796981580862179E-009
 0.994853411168077E-009
 0.802850520991662E-009
 0.119709264168999E-009
 0.114698209766037E-009
 0.146557331957984E-009
 0.123004054989039E-009
 0.414202320630554E-008
 0.393415845051045E-008
 0.182307559571810E-008
 0.381108412884802E-008
 0.392611263695960E-011
 0.372891592054302E-011
 0.243983628247961E-011
 0.326871946046298E-011
 0.294394391491617E-011
 0.352754788840384E-011
 0.218655412063840E-011
 0.293135917365207E-011
 0.109345380214606E-011
 0.100000000000000E-011
 0.100000000000000E-011
 0.100000000000000E-011
 0.156753915904128E-011
 0.245550555031579E-011
 0.269358260993106E-011
 0.218988923179589E-011
 0.501033687338302E-011
 0.804598050752745E-011
 0.505900350984619E-011
 0.564516697648660E-011
 0.970816170568702E-011
 0.101121065161670E-010
 0.516037810448441E-011
 0.729645326829617E-011
 0.596295036421302E-001
 0.141813866116673E+000
 0.450443931620608E-001
 0.810017709082645E-001
 0.991486542082746E-001
 0.129208435016897E-001
 0.180569809033659E-001
 0.736313107276801E-001
 0.164139354174760E-001
 0.493785181567107E-001
 0.398950349191804E-001
 0.169147706332648E-001
 0.310131700047133E-001
 0.323258093192362E-001
 0.121748252883154E-001
 0.212349842910962E-001
 0.205798656719204E-002
 0.192461317499929E-002
 0.152425843804254E-001
 0.845229092821230E-002
 0.831956199715875E-002
 0.280245238007458E-002
 0.261621748498727E-002
 0.118774472418436E-001
 0.184415100285659E+000
 0.395668631262338E+000
 0.785016461094254E+000
 0.876047920857565E-001
 0.376173511392589E-001
 0.782315838500255E-002
 0.148881246694269E-001
 0.973563361572487E-002
 0.182680102631922E-001
 0.904165375411941E-001
 0.152281091779086E-002
 0.760543571811969E-001
 0.174689252175961E+000
 0.984445203834012E-002
 0.469626925827920E-001
 0.196051266373636E-001
 0.161281687366285E-001
 0.139531393998370E-001
 0.543703193116882E-001
 0.620187137489236E-002
 0.110789545818586E-001
 0.101891304664564E-001
 0.292510813493713E-001
 0.331713051083979E-002
 0.842390686301853E-002
 0.735543013718440E-002
 0.130867854347063E-001
 0.678539071523492E-002
 0.957164531355958E-001
 0.772205668585365E+000
 0.586870104431006E+000
 0.776730280376576E+000
 0.531815910446360E-001
 0.195694938922425E-001
 0.744469452621968E-001
 0.283049658961350E-001
 0.305846637347893E+001
 0.758033999021802E+000
 0.252234908749082E+001
 0.231277920533172E+001
 0.131610425141169E+000
 0.894252526301074E-001
 0.129214862112875E-001
 0.614570076226991E-001
 0.893791305132351E-001
 0.568056541372686E+000
 0.820058635939058E-001
 0.944131877513271E-001
 0.243018804542339E-001
 0.527874258402678E-001
 0.280264948196780E-001
 0.834007619299717E-001
 0.764234764543498E-001
 0.921258635218013E-002
 0.626394301650238E-002
 0.103086903767934E-001
 0.959787589899455E-002
 0.772401667114808E-002
 0.933711621732012E-002
 0.476988466478901E-004
 0.654381876095202E-001
 0.169531821741879E+000
 0.939196860917002E-001
 0.344502551223270E-001
 0.739911095412628E+000
 0.227122852362011E+000
 0.790072193380419E+000
 0.931074023625389E+000
 0.113246539811593E+000
 0.136477172394683E+000
 0.122025587832143E+000
 0.102811089807613E+000
 0.132395511837794E+000
 0.121113812716645E+001
 0.112926070906608E+000
 0.114424747268762E+000
 0.592751259990290E+000
 0.168001809612404E+000
 0.366571290736661E+001
 0.230862780529940E+001
 0.152053210236655E-001
 0.239706742583499E-002
 0.254987245568690E-001
 0.232499549949881E-001
 0.486374099828748E-002
 0.126465958446688E-001
 0.646754088459731E-001
 0.604420777680194E-002
 0.133242607310567E-001
 0.379475053651434E-002
 0.102596648121210E+000
 0.753610499998759E-002
 0.528561882743997E-001
 0.398505879041008E+001
 0.503796130658250E-001
 0.481939682035867E-001
 0.161502250750510E-001
 0.520338605606047E-001