# vtk DataFile Version 3.0
Unstructured Grid
ASCII
DATASET UNSTRUCTURED_GRID
FIELD FieldData 1
TIME 1 1 float
  0.220850E+01
POINTS         2102 double
 0.000000000000000E+000 0.000000000000000E+000 0.000000000000000E+000
 0.100000000000000E+001 0.000000000000000E+000 0.000000000000000E+000
 0.100000000000000E+001 0.100000000000000E+001 0.000000000000000E+000
 0.000000000000000E+000 0.100000000000000E+001 0.000000000000000E+000
 0.125000000000000E+000 0.250000000000000E+000 0.000000000000000E+000
 0.375000000000000E+000 0.250000000000000E+000 0.000000000000000E+000
 0.375000000000000E+000 0.750000000000000E+000 0.000000000000000E+000
 0.125000000000000E+000 0.750000000000000E+000 0.000000000000000E+000
 0.625000000000000E+000 0.250000000000000E+000 0.000000000000000E+000
 0.875000000000000E+000 0.250000000000000E+000 0.000000000000000E+000
 0.875000000000000E+000 0.750000000000000E+000 0.000000000000000E+000
 0.625000000000000E+000 0.750000000000000E+000 0.000000000000000E+000
 0.100000000000000E+001 0.500000000000000E+000 0.000000000000000E+000
 0.000000000000000E+000 0.500000000000000E+000 0.000000000000000E+000
 0.500000000000000E+000 0.000000000000000E+000 0.000000000000000E+000
 0.125000000000000E+000 0.500000000000000E+000 0.000000000000000E+000
 0.000000000000000E+000 0.750000000000000E+000 0.000000000000000E+000
 0.000000000000000E+000 0.250000000000000E+000 0.000000000000000E+000
 0.000000000000000E+000 0.875000000000000E+000 0.000000000000000E+000
 0.000000000000000E+000 0.125000000000000E+000 0.000000000000000E+000
 0.000000000000000E+000 0.812500000000000E+000 0.000000000000000E+000
 0.625000000000000E-001 0.812500000000000E+000 0.000000000000000E+000
 0.125000000000000E+000 0.375000000000000E+000 0.000000000000000E+000
 0.000000000000000E+000 0.375000000000000E+000 0.000000000000000E+000
 0.125000000000000E+000 0.625000000000000E+000 0.000000000000000E+000
 0.312500000000000E-001 0.781250000000000E+000 0.000000000000000E+000
 0.000000000000000E+000 0.625000000000000E+000 0.000000000000000E+000
 0.781250000000000E-001 0.765625000000000E+000 0.000000000000000E+000
 0.312500000000000E-001 0.843750000000000E+000 0.000000000000000E+000
 0.500000000000000E+000 0.100000000000000E+001 0.000000000000000E+000
 0.852352799227800E-001 0.850726351351351E+000 0.000000000000000E+000
 0.531250000000000E-001 0.896875000000000E+000 0.000000000000000E+000
 0.128125000000000E+000 0.862500000000000E+000 0.000000000000000E+000
 0.125000000000000E+000 0.100000000000000E+001 0.000000000000000E+000
 0.250000000000000E+000 0.750000000000000E+000 0.000000000000000E+000
 0.000000000000000E+000 0.937500000000000E+000 0.000000000000000E+000
 0.250000000000000E+000 0.100000000000000E+001 0.000000000000000E+000
 0.117915518486872E+000 0.805415518486872E+000 0.000000000000000E+000
 0.201656717908302E+000 0.819893736067327E+000 0.000000000000000E+000
 0.181985294117647E-001 0.906250000000000E+000 0.000000000000000E+000
 0.157158578892515E+000 0.827852167423944E+000 0.000000000000000E+000
 0.187500000000000E+000 0.750000000000000E+000 0.000000000000000E+000
 0.190370748034901E+000 0.885171153579592E+000 0.000000000000000E+000
 0.173219498992632E+000 0.789273026175030E+000 0.000000000000000E+000
 0.125000000000000E+000 0.687500000000000E+000 0.000000000000000E+000
 0.000000000000000E+000 0.687500000000000E+000 0.000000000000000E+000
 0.441080729166667E-001 0.732584635416667E+000 0.000000000000000E+000
 0.625000000000000E-001 0.100000000000000E+001 0.000000000000000E+000
 0.324539302647226E+000 0.874753539998500E+000 0.000000000000000E+000
 0.138239725210285E+000 0.931515391482052E+000 0.000000000000000E+000
 0.218750000000000E+000 0.780050991479902E+000 0.000000000000000E+000
 0.282595248614805E+000 0.815169690490412E+000 0.000000000000000E+000
 0.241894668607517E+000 0.813568527927710E+000 0.000000000000000E+000
 0.259830219207979E+000 0.875750318441249E+000 0.000000000000000E+000
 0.375000000000000E+000 0.687500000000000E+000 0.000000000000000E+000
 0.894072114981556E-001 0.718750000000000E+000 0.000000000000000E+000
 0.156250000000000E+000 0.718750000000000E+000 0.000000000000000E+000
 0.171875000000000E+000 0.671875000000000E+000 0.000000000000000E+000
 0.208984375000000E+000 0.705078125000000E+000 0.000000000000000E+000
 0.187500000000000E+000 0.100000000000000E+001 0.000000000000000E+000
 0.100742481264918E+000 0.901762004578004E+000 0.000000000000000E+000
 0.897955050140944E-001 0.954063112745616E+000 0.000000000000000E+000
 0.454072994832874E-001 0.943019090840959E+000 0.000000000000000E+000
 0.312500000000000E-001 0.978320013898389E+000 0.000000000000000E+000
 0.151802024837252E+000 0.894278844061106E+000 0.000000000000000E+000
 0.312500000000000E+000 0.750000000000000E+000 0.000000000000000E+000
 0.349824395642442E+000 0.812398913150492E+000 0.000000000000000E+000
 0.291845278223558E+000 0.853213315943310E+000 0.000000000000000E+000
 0.312500000000000E+000 0.100000000000000E+001 0.000000000000000E+000
 0.221920040905101E+000 0.857011448773234E+000 0.000000000000000E+000
 0.610875609743251E-001 0.656250000000000E+000 0.000000000000000E+000
 0.575501251937821E-001 0.695518883967223E+000 0.000000000000000E+000
 0.229414059980049E+000 0.912264575939035E+000 0.000000000000000E+000
 0.267409472953924E+000 0.912989160289387E+000 0.000000000000000E+000
 0.247617500704634E+000 0.954276202159214E+000 0.000000000000000E+000
 0.186156415773925E+000 0.932922904662876E+000 0.000000000000000E+000
 0.161177138586098E+000 0.966975254724362E+000 0.000000000000000E+000
 0.281250000000000E+000 0.775106270475024E+000 0.000000000000000E+000
 0.232477697233870E+000 0.641481728091557E+000 0.000000000000000E+000
 0.375000000000000E+000 0.500000000000000E+000 0.000000000000000E+000
 0.343750000000000E+000 0.773669964712841E+000 0.000000000000000E+000
 0.500000000000000E+000 0.836710937419870E+000 0.000000000000000E+000
 0.625000000000000E-001 0.460493798860530E+000 0.000000000000000E+000
 0.225506433867106E-001 0.656250000000000E+000 0.000000000000000E+000
 0.625000000000000E-001 0.578156919744020E+000 0.000000000000000E+000
 0.100683627400278E+000 0.656250000000000E+000 0.000000000000000E+000
 0.808855941873017E-001 0.617548766045778E+000 0.000000000000000E+000
 0.396623706279028E-001 0.612802597169787E+000 0.000000000000000E+000
 0.000000000000000E+000 0.562500000000000E+000 0.000000000000000E+000
 0.209099082089092E+000 0.966015356758449E+000 0.000000000000000E+000
 0.208176344887401E+000 0.668642063067022E+000 0.000000000000000E+000
 0.375000000000000E+000 0.625000000000000E+000 0.000000000000000E+000
 0.281250000000000E+000 0.727693574222975E+000 0.000000000000000E+000
 0.410395729589754E-001 0.531250000000000E+000 0.000000000000000E+000
 0.243044505147503E+000 0.715165207256627E+000 0.000000000000000E+000
 0.427668699245901E+000 0.807527989856971E+000 0.000000000000000E+000
 0.375000000000000E+000 0.100000000000000E+001 0.000000000000000E+000
 0.396556497766215E+000 0.872516538744482E+000 0.000000000000000E+000
 0.125000000000000E+000 0.562500000000000E+000 0.000000000000000E+000
 0.386020873411304E-001 0.491878123024719E+000 0.000000000000000E+000
 0.837862679783012E-001 0.496009823563561E+000 0.000000000000000E+000
 0.181474703505393E+000 0.615400296494607E+000 0.000000000000000E+000
 0.156642498481761E+000 0.640232501518239E+000 0.000000000000000E+000
 0.148741293073547E+000 0.593750000000000E+000 0.000000000000000E+000
 0.198570897886273E+000 0.531250000000000E+000 0.000000000000000E+000
 0.186280074550956E+000 0.572564766212389E+000 0.000000000000000E+000
 0.261115628859886E+000 0.572342169151976E+000 0.000000000000000E+000
 0.223664380580028E+000 0.561200712513239E+000 0.000000000000000E+000
 0.260913847788851E+000 0.504504802962447E+000 0.000000000000000E+000
 0.220403809070327E+000 0.602182935170118E+000 0.000000000000000E+000
 0.280942357260745E+000 0.670965807217831E+000 0.000000000000000E+000
 0.303530083216233E+000 0.699208028468857E+000 0.000000000000000E+000
 0.244300952472090E+000 0.677895460994186E+000 0.000000000000000E+000
 0.278676255979588E+000 0.620116626474426E+000 0.000000000000000E+000
 0.375000000000000E+000 0.562500000000000E+000 0.000000000000000E+000
 0.294783395930685E+000 0.587081428049465E+000 0.000000000000000E+000
 0.296390010773290E+000 0.538188197482711E+000 0.000000000000000E+000
 0.326808615275446E+000 0.623140446700340E+000 0.000000000000000E+000
 0.375000000000000E+000 0.375000000000000E+000 0.000000000000000E+000
 0.341600259444201E+000 0.531250000000000E+000 0.000000000000000E+000
 0.337040360926244E+000 0.581802448479955E+000 0.000000000000000E+000
 0.313454820588085E+000 0.656240056545723E+000 0.000000000000000E+000
 0.244117968371280E+000 0.386059455330322E+000 0.000000000000000E+000
 0.316730626055850E+000 0.471195859600445E+000 0.000000000000000E+000
 0.343361747898823E+000 0.718361747898823E+000 0.000000000000000E+000
 0.387582141166944E+000 0.791354577928815E+000 0.000000000000000E+000
 0.394629419637968E+000 0.831652479273046E+000 0.000000000000000E+000
 0.359139968398398E+000 0.852480346691833E+000 0.000000000000000E+000
 0.449407668689709E+000 0.857876667231944E+000 0.000000000000000E+000
 0.504433083654504E+000 0.918355468709935E+000 0.000000000000000E+000
 0.438910290808154E+000 0.922698775777408E+000 0.000000000000000E+000
 0.487684842153978E+000 0.878322236197629E+000 0.000000000000000E+000
 0.750000000000000E+000 0.100000000000000E+001 0.000000000000000E+000
 0.429264219376497E+000 0.887875644335434E+000 0.000000000000000E+000
 0.297282757956014E+000 0.952697072250340E+000 0.000000000000000E+000
 0.308758340495749E+000 0.912972519020668E+000 0.000000000000000E+000
 0.353713070703707E+000 0.947478792032462E+000 0.000000000000000E+000
 0.343750000000000E+000 0.982091257636542E+000 0.000000000000000E+000
 0.437500000000000E+000 0.100000000000000E+001 0.000000000000000E+000
 0.386196294810884E+000 0.916319687483247E+000 0.000000000000000E+000
[...]
CELL_DATA         4076
SCALARS tdens double 1
LOOKUP_TABLE default
 0.222132040017532E-002
 0.262732413617008E-002
 0.315930404237745E-002
 0.267596716522959E-002
 0.540934107288306E-001
 0.437993060361808E-001
 0.431537283730844E-001
 0.461876003952195E-001
 0.217347208665414E+000
 0.235018021416097E+000
 0.261333791834984E+000
 0.240224164250489E+000
 0.238399778893025E-002
 0.311914056795115E-002
 0.306722619183270E-002
 0.277490948529081E-002
 0.389202438091549E-002
 0.491127530206549E-002
 0.500188720364840E-002
 0.452948873959529E-002
 0.522403704885971E-002
 0.639770018920691E-002
 0.612153766414858E-002
 0.582196741782647E-002
 0.782578974870587E-001
 0.636336686747171E-001
 0.708645780395473E-001
 0.756681739277772E-001
 0.513340004047117E-001
 0.657586969709991E-001
 0.606377685642333E-001
 0.598134458948282E-001
 0.831213892182793E-001
 0.695585989205423E-001
 0.772536956698329E-001
 0.766358782272581E-001
 0.352995123747777E-002
 0.381493715678232E-002
 0.378648116987691E-002
 0.372967221931328E-002
 0.177573066040980E-001
 0.161591935156906E-001
 0.152775367578371E-001
 0.164096210384950E-001
 0.224555169315807E+000
 0.194992818846249E+000
 0.174608029682344E+000
 0.201011321398627E+000
 0.213054072642756E-002
 0.234726281759580E-002
 0.294877005112425E-002
 0.237999532486136E-002
 0.104311157619060E+000
 0.118610399337842E+000
 0.119930642226563E+000
 0.116622535726649E+000
 0.264778742126361E-001
 0.234918046137273E-001
 0.236928004201151E-001
 0.245721311928474E-001
 0.330294937439542E-001
 0.283125153089088E-001
 0.242576960241594E-001
 0.280537301338608E-001
 0.427936055999822E-002
 0.485340924633625E-002
 0.603689221443713E-002
 0.510723706451591E-002
 0.971881810781532E-002
 0.878618635510274E-002
 0.708311991503989E-002
 0.831780456121456E-002
 0.148229885892935E-002
 0.141101619383681E-002
 0.249247052265604E-002
 0.182434906511877E-002
 0.123104090908753E+000
 0.136787701944481E+000
 0.109140527253445E+000
 0.119196483831578E+000
 0.660555137268855E-001
 0.450711253027568E-001
 0.606659356868782E-001
 0.524687237033712E-001
 0.363375697984113E-002
 0.396943480151167E-002
 0.394161789028694E-002
 0.386650578305632E-002
 0.528359222540135E-001
 0.387336336682694E-001
 0.541162955826066E-001
 0.451178754688907E-001
 0.408644934297419E-002
 0.358651293850976E-002
 0.400514121975526E-002
 0.377467348583579E-002
 0.287613303997687E-001
 0.486146295692163E-001
 0.329544823526581E-001
 0.376569852639889E-001
 0.233903378181473E-001
 0.175954826062540E-001
 0.170434389101878E-001
 0.189442581019678E-001
 0.477368826209037E-002
 0.653430370824033E-002
 0.474265694620765E-002
 0.532175554954039E-002
 0.114650922114231E+000
 0.130262862740810E+000
 0.107712293302824E+000
 0.127423126943185E+000
 0.554373885048740E-002
 0.621392790253012E-002
 0.498383028069261E-002
 0.550990015449300E-002
 0.124752410998332E-001
 0.813325183802773E-002
 0.922980413618746E-002
 0.964523897506587E-002
 0.564894887006044E-002
 0.759869294258801E-002
 0.686229969731362E-002
 0.653270581462075E-002
 0.781060259110787E-002
 0.633957760463862E-002
 0.630026719698762E-002
 0.685791356342859E-002
 0.103554999433791E-001
 0.126927309720244E-001
 0.820910381110427E-002
 0.100519801106517E-001
 0.701199801639220E-002
 0.841451290247772E-002
 0.968783242618935E-002
 0.834849718772985E-002
 0.284833983967909E-002
 0.259647795138411E-002
 0.177024307079197E-002
 0.231070704146478E-002
 0.136202599046674E+000
 0.131683559643881E+000
 0.134135547925227E+000
 0.135947905118437E+000
 0.108274372510410E-001
 0.781067712677840E-002
 0.127883201084578E-001
 0.100505624273150E-001
 0.287404205864652E-002
 0.243707540002170E-002
 0.310789124892985E-002
 0.279976785964535E-002
 0.591041567512841E-002
 0.502367400381864E-002
 0.624547665980397E-002
 0.562269887190370E-002
 0.436981695733719E-002
 0.417967437967324E-002
 0.406670717436956E-002
 0.418048766931443E-002
 0.456613136747089E-002
 0.434129254853130E-002
 0.530359465178448E-002
 0.470211718719139E-002
 0.881112873334685E-002
 0.722062715860260E-002
 0.116437267380555E-001
 0.884755141016978E-002
 0.331854057823793E-002
 0.379514869528310E-002
 0.318094211764102E-002
 0.349080207821084E-002
 0.887048021563554E-003
 0.546326495399087E-003
 0.705433000391702E-003
 0.735343112813001E-003
 0.246457434495087E-001
 0.279642905965640E-001
 0.279934435591272E-001
 0.267068551683158E-001
 0.117685230286224E-002
 0.168484666369591E-002
 0.194149254171071E-002
 0.154663064280796E-002
 0.583091440907959E-001
 0.642070264333191E-001
 0.441004922814627E-001
 0.555304635404367E-001
 0.191018674856856E-001
 0.110195317780089E-001
 0.168484481455893E-001
 0.151983863508224E-001
 0.510778516789050E-002
 0.608666698528551E-002
 0.708118494454532E-002
 0.599649368041696E-002
 0.371990278694088E-002
 0.326679240436431E-002
 0.265316022151792E-002
 0.314123505675360E-002
 0.384085638711203E-002
 0.432006993489610E-002
 0.514726131615123E-002
 0.444714020145698E-002
 0.269718628998978E-002
 0.225863658129837E-002
 0.220297661406974E-002
 0.229932518489752E-002
 0.319286362758140E-001
 0.362387443150883E-001
 0.478756100899245E-001
 0.418055733921662E-001
 0.255921961257939E-002
 0.294831671882667E-002
 0.354237028951826E-002
 0.305272239215292E-002
 0.193034852043907E-002
 0.162208056692341E-002
 0.189124334158157E-002
 0.186674478552528E-002
 0.263575742870009E-001
 0.444264398189187E-001
 0.265399694725966E-001
 0.315602059379111E-001
 0.603896872187554E-002
 0.692486834815322E-002
 0.534798578078254E-002
 0.607753974667571E-002
 0.337323061535444E-002
 0.414228969323690E-002
 0.404152787554400E-002
 0.374348440891183E-002
 0.603160236696641E-002
 0.505218853050576E-002
 0.707981478611634E-002
 0.592888596914742E-002
 0.278820901881865E-002
 0.205655779478415E-002
 0.221822082979222E-002
 0.238624036900802E-002
 0.112611236653931E-002
 0.175688550684430E-002
 0.146547487788543E-002
 0.143199624272970E-002
 0.137041659949837E-001
 0.192977684844889E-001
 0.183098428221409E-001
 0.171300244495043E-001
 0.104881361024197E-001
 0.119165091827695E-001
 0.155765413729275E-001
 0.124797552628720E-001
 0.614490605317420E-001
 0.746297880031284E-001
 0.504795158611991E-001
 0.599878582315170E-001
 0.275941805297762E-001
 0.305872480444274E-001
 0.457319815688262E-001
 0.352359843506428E-001
 0.287592727433394E-001
 0.235837318659194E-001
 0.339216015337146E-001
 0.289396550240263E-001
 0.449043760852137E-002
 0.551461470068985E-002
 0.559136170427506E-002
 0.514871278601524E-002
 0.104267621256011E-001
 0.169968259571903E-001
 0.120198729562797E-001
 0.129218578856779E-001
 0.395327637904292E-001
 0.289406463184351E-001
 0.454719150834620E-001
 0.387552436885434E-001
 0.254535966697469E-002
 0.292494890532849E-002
 0.319104003577547E-002
 0.288578100558002E-002
 0.526905980345636E-002
 0.440413845852724E-002
 0.467019700506422E-002
 0.478061634118303E-002
 0.417804667928671E-002
 0.401687774553985E-002
 0.374803865309629E-002
 0.399289317940920E-002
 0.576286811089222E-002
 0.475444119808995E-002
 0.475448529389782E-002
 0.511035828707467E-002
 0.139954821622652E-002
 0.192617314225029E-002
 0.174388217444874E-002
 0.163009219714759E-002
 0.960093212392566E-003
 0.131313221974304E-002
 0.110656925033462E-002
 0.105228740082707E-002
 0.255569228476773E-001
 0.268349447854449E-001
 0.367511060363225E-001
 0.285052201962330E-001
 0.149518154944466E-001
 0.129776566098647E-001
 0.148174431873287E-001
 0.142665480678401E-001
 0.649984338917851E-002
 0.828699527022747E-002
 0.647079313736225E-002
 0.713103642432900E-002
 0.897987505355497E-002
 0.652447007215834E-002
 0.659543468795056E-002
 0.732738419876238E-002
 0.527344721934004E-001
 0.356602937265886E-001
 0.429154710138445E-001
 0.424599497295481E-001
 0.250744668008696E-001
 0.339116972330538E-001
 0.229875806503983E-001
 0.262690444177598E-001
 0.855236645635160E-001
 0.101720228414765E+000
 0.106258439614656E+000
 0.978598695864809E-001
 0.293160272377552E-001
 0.323030148398796E-001
 0.262640405352517E-001
 0.291195009343100E-001
 0.621314985275176E-001
 0.506745112463665E-001
 0.724606913656450E-001
 0.625712760552841E-001
 0.231339624608573E-001
 0.189677769731643E-001
 0.251762228133434E-001
 0.222168819144494E-001
 0.166517050224834E-001
 0.171790618666299E-001
 0.206907778227024E-001
 0.181812214926618E-001
 0.161364761525688E-001
 0.144530791761384E-001
 0.111074833825539E-001
 0.136847246580255E-001
 0.730066119155464E+000
 0.775467320669363E+000
 0.972828500998424E+000
 0.854942378291209E+000
 0.106523155070549E+000
 0.122265821355444E+000
 0.125874036070161E+000
 0.123006259234237E+000
 0.690971169844257E-002
 0.745913477897596E-002
 0.107359305784585E-001
 0.815654716379183E-002
 0.342157721585429E-002
 0.322500082265121E-002
 0.390132544100548E-002
 0.355131982350587E-002
 0.121480182094804E+000
 0.115558065560541E+000
 0.892980059673854E-001
 0.988644632415888E-001
 0.172240874129544E-001
 0.112112736036000E-001
 0.226682237988026E-001
 0.152685676563968E-001
 0.601888939086592E-002
 0.160716150096900E-001
 0.734277417616386E-002
 0.846906438703980E-002
 0.238592181133861E-001
 0.115132392774009E-001
 0.285327169751192E-001
 0.195674262525961E-001
 0.120503929514403E+000
 0.108351016831216E+000
 0.129324581432126E+000
 0.119720713399248E+000
 0.607457476970544E-001
 0.593986282006234E-001
 0.682273015948569E-001
 0.614070140820731E-001
 0.414909919554488E-002
 0.521398096625649E-002
 0.415941549006791E-002
 0.448538628099034E-002
 0.543342981714088E-002
 0.409238095660751E-002
 0.549492816047628E-002
 0.492571362428855E-002
 0.237605442290340E-002
 0.314717123314809E-002
 0.341032220604017E-002
 0.288757803945292E-002
 0.230374178626441E-002
 0.210911794760625E-002
 0.305532353925845E-002
 0.255527310261096E-002
 0.564981229679647E-003
 0.892901215755185E-003
 0.716106018440664E-003
 0.742677247457934E-003
 0.182525521318217E-002
 0.130562615796815E-002
 0.148177491092431E-002
 0.156221266868163E-002
 0.967843298978033E-003
 0.112237445568111E-002
 0.149284770305073E-002
 0.115546183483422E-002
 0.586837642680373E-003
 0.170227849762823E-003
 0.419024629968763E-003
 0.351848626648946E-003
 0.550596010540980E-003
 0.394113598356763E-003
 0.157028743450143E-003
 0.313969971710578E-003
 0.901192614355809E-002
 0.702484985695128E-002
 0.857597493265682E-002
 0.809316496042507E-002
 0.374628772246733E-002
 0.498556086009861E-002
 0.403868437453749E-002
 0.427607500084660E-002
 0.912298403042157E-001
 0.771215419508936E-001
 0.702718092115558E-001
 0.795974093204320E-001
 0.495432115820405E-001
 0.660359805188015E-001
 0.600634316515100E-001
 0.531827277600094E-001
 0.579193145353869E-001
 0.708421131939054E-001
 0.635744949540531E-001
 0.638640280482088E-001
 0.108634273498655E-001
 0.108413731245842E-001
 0.895065681655931E-002
 0.101131631183077E-001
 0.396167035313595E-001
 0.286682618840597E-001
 0.350198617277471E-001
 0.341125005278954E-001
 0.129018156850715E-001
 0.143673041918394E-001
 0.124480938891403E-001
 0.131675886101282E-001
 0.353567656391126E-003
 0.519331656768093E-003
 0.137351151723256E-003
 0.338984642574221E-003
 0.602181301483473E-003
 0.105811454464589E-002
 0.761461141613152E-003
 0.745060006972188E-003
 0.245775634558709E-001
 0.175248138941565E-001
 0.202645552908920E-001
 0.203895434582932E-001
 0.114773397594439E-001
 0.142521286057057E-001
 0.148187686457081E-001
 0.133951223990207E-001
 0.192176466606827E-002
 0.127189590833542E-002
 0.193546108908424E-002
 0.169668374003596E-002
 0.785285121612999E-002
 0.587478110926045E-002
 0.584550293487302E-002
 0.656386407788186E-002
 0.371522697666222E-002
 0.426153643896066E-002
 0.433086383427172E-002
 0.402174380411566E-002
 0.451722399341117E-002
 0.408892214293639E-002
 0.490639167485837E-002
 0.449783473869181E-002
 0.128974388650767E-001
 0.103469948569460E-001
 0.996966587868261E-002
 0.110291863064846E-001
 0.125896693261361E-001
 0.111877275167201E-001
 0.143335983524386E-001
 0.126229015667255E-001
 0.213102586509343E-001
 0.177360763541373E-001
 0.218176633066046E-001
 0.200300406822993E-001
 0.104297040469814E-001
 0.836842352440962E-002
 0.890028344763149E-002
 0.922693943251292E-002
 0.997247134935905E-002
 0.113207665948521E-001
 0.928885820832856E-002
 0.101565362080183E-001
 0.702101066203247E-002
 0.882973264538734E-002
 0.833521098430630E-002
 0.788049899397078E-002
 0.560711352546122E-002
 0.568461476573537E-002
 0.455575863887398E-002
 0.524066391218440E-002
 0.405691384562076E-002
 0.287770872992315E-002
 0.368805648898343E-002
 0.350564744375068E-002
 0.279782325714651E-002
 0.356586962000591E-002
 0.363055131017239E-002
 0.309452420830993E-002
 0.347509486147533E-001
 0.505505943472504E-001
 0.379505260013725E-001
 0.399606388344987E-001
 0.849816598197778E-001
 0.936168443106834E-001
 0.719776704368494E-001
 0.831078103817847E-001
 0.888186465656114E-001
 0.922581055844560E-001
 0.983599447633030E-001
 0.959657714654038E-001
 0.183663156491052E+000
 0.156104404435448E+000
 0.139407857110113E+000
 0.149689661655486E+000
 0.492035975360586E-001
 0.390123614930662E-001
 0.339677701182290E-001
 0.395175271500327E-001
 0.969038679825240E-001
 0.752177042426187E-001
 0.684177961224492E-001
 0.858300612043077E-001
 0.713278659346153E-001
 0.792402436293104E-001
 0.975352749013209E-001
 0.793493580887842E-001
 0.610204934340829E-001
 0.477568209764552E-001
 0.424430095803712E-001
 0.496019469521587E-001
 0.157925870739699E-001
 0.168623987377764E-001
 0.154830995746697E-001
 0.159051777415930E-001
 0.353235969848369E-002
 0.357338532300641E-002
 0.444858966767847E-002
 0.384649796806931E-002
 0.439315398578402E-001
 0.471700202046550E-001
 0.550657973858216E-001
 0.479251937371500E-001
 0.113356107070804E-001
 0.968784091017884E-002
 0.116059664062317E-001
 0.108417806795030E-001
 0.273529246944624E-002
 0.231207120744553E-002
 0.235091448423397E-002
 0.240398362622266E-002
 0.411383988531215E-002
 0.330467607340125E-002
 0.372598733039220E-002
 0.366123839451468E-002
 0.228480887148085E-003
 0.608481862909084E-003
 0.665707955826588E-003
 0.451143077736686E-003
 0.145702671119441E-002
 0.910808661081507E-003
 0.888455024254670E-003
 0.111708651394315E-002
 0.623037854069981E-002
 0.834884348777691E-002
 0.705685523999976E-002
 0.723971815686581E-002
 0.364209800450183E-002
 0.462581093774695E-002
 0.384815917069464E-002
 0.406148785260760E-002
 0.328244355669718E-002
 0.292458731085614E-002
 0.257382335939147E-002
 0.295263189906047E-002
 0.368253943365041E-001
 0.632714206732465E-001
 0.566901515237263E-001
 0.445166853907794E-001
 0.216474314683671E-002
 0.283576897886447E-002
 0.230706166007085E-002
 0.246339815959809E-002
 0.264654839451342E-002
 0.318805591503413E-002
 0.340816013731971E-002
 0.302145631913365E-002
 0.749498708232605E-002
 0.666313972745414E-002
 0.790512390190867E-002
 0.740297599790552E-002
 0.194152372732078E-002
 0.122592283662724E-002
 0.176537668139283E-002
 0.154575677493792E-002
 0.434847466484943E-002
 0.543085461068317E-002
 0.469423590439285E-002
 0.479252774179286E-002
 0.212177549271310E+000
 0.219706305867419E+000
 0.382759369325573E+000
 0.232662415146043E+000
 0.563862073079415E-001
 0.629416385601397E-001
 0.441466096796605E-001
 0.576527176323220E-001
 0.247607109161712E+000
 0.223668065731829E+000
 0.299955882861853E+000
 0.252614075164894E+000
 0.119901103622170E+000
 0.106051266915452E+000
 0.103408544998629E+000
 0.103252174990159E+000
 0.801176455045972E-001
 0.885627971224103E-001
 0.849079001580621E-001
 0.837595905909638E-001
 0.177326395667636E+000
 0.144126153118636E+000
 0.150508308679633E+000
 0.157012175332037E+000
 0.251049204029075E+000
 0.212955305490077E+000
 0.215465777005849E+000
 0.229073431719622E+000
 0.107841805982459E-002
 0.887950750209342E-003
 0.146809158656538E-002
 0.109413210765810E-002
 0.847039233940564E-001
 0.649033358996482E-001
 0.717321749254533E-001
 0.778018513107228E-001
 0.792022026325418E-001
 0.683381521886234E-001
 0.909920029394471E-001
 0.752057832699183E-001
 0.303537957457129E-001
 0.363798038273800E-001
 0.334897103151474E-001
 0.332875410656947E-001
 0.371938287161035E-001
 0.308534540188051E-001
 0.262768594009156E-001
 0.312799327366309E-001
 0.275101074727300E-001
 0.285536377328459E-001
 0.311462360154192E-001
 0.289210146109804E-001
 0.135727633892800E-001
 0.127443126205350E-001
 0.146509920084505E-001
 0.135743488242633E-001
 0.486474277550751E-001
 0.481315622001790E-001
 0.384007798064516E-001
 0.455095998458389E-001
 0.171774081288278E-002
 0.159803337446380E-002
 0.106666445792075E-002
 0.142376336749895E-002
 0.124231216694265E-002
 0.150960298464281E-002
 0.954835523312208E-003
 0.126015082439139E-002
 0.476433735235151E-003
 0.334482038238232E-003
 0.112920283083172E-003
 0.228010284718074E-003
 0.656878299154197E-003
 0.100989625936292E-002
 0.111223623599149E-002
 0.901775696279601E-003
 0.209498203879464E-002
 0.288947628489148E-002
 0.212451221389611E-002
 0.233094335996480E-002
 0.264904021914903E-002
 0.292726445133515E-002
 0.214816084379949E-002
 0.264579836058176E-002
 0.264023161705241E-001
 0.447439171478433E-001
 0.293350106308596E-001
 0.360212540585967E-001
 0.500789810897761E-001
 0.126251150937569E-001
 0.284410555110205E-001
 0.259530819870507E-001
 0.109662730922675E-001
 0.230055999396143E-001
 0.276451613515227E-001
 0.198265048207240E-001
 0.184942202289336E-001
 0.215889781900848E-001
 0.790454830836577E-002
 0.145982441245128E-001
 0.517224047304417E-002
 0.505926461406084E-002
 0.127191537274040E-001
 0.689303082290339E-002
 0.155085512158152E-001
 0.500814565173027E-002
 0.462989581012859E-002
 0.815675351898528E-002
 0.127362068773698E+000
 0.162997602717342E+000
 0.156209349358774E+000
 0.144945991819596E+000
 0.115063771801035E+000
 0.848163975594657E-001
 0.114778111743149E+000
 0.901975710566314E-001
 0.940620623901426E-002
 0.402548855142676E-001
 0.183531890798516E-001
 0.308944642131653E-001
 0.777380223515748E-001
 0.882963546304348E-001
 0.108511542988475E+000
 0.971565206111723E-001
 0.193503925770918E+000
 0.156308408185322E+000
 0.192412824921080E+000
 0.172651731854563E+000
 0.331662647740222E+000
 0.400777595462097E+000
 0.380821048409105E+000
 0.356575128750275E+000
 0.124258384690680E+000
 0.103447235834093E+000
 0.121991370016443E+000
 0.113274226339934E+000
 0.196729845098002E+000
 0.199340568805512E+000
 0.151653892243534E+000
 0.164755233276726E+000
 0.369496240373615E-001
 0.125178849879395E-001
 0.383630100595807E-001
 0.231329318128669E-001
 0.260491326339436E+000
 0.272184158633971E+000
 0.266003352983045E+000
 0.266585984409649E+000
 0.703115499955853E-001
 0.942432773902733E-001
 0.642387344974614E-001
 0.847246658936784E-001
 0.162900381968341E+000
 0.124395545673129E+000
 0.130557881636602E+000
 0.155132488700264E+000
 0.905928728382738E-001
 0.124047785201227E+000
 0.994405438037809E-001
 0.978473655676054E-001
 0.121563054196359E+000
 0.121345344410972E+000
 0.162423658536420E+000
 0.156330339580308E+000
 0.205160768375578E+000
 0.156750497939858E+000
 0.151518811951777E+000
 0.159409440797421E+000
 0.102450876462502E+000
 0.129653383111548E+000
 0.124869629968491E+000
 0.123750608254279E+000
 0.108031215023798E+000
 0.101220954099335E+000
 0.863195681664063E-001
 0.935302084648187E-001
 0.119463203320042E+000
 0.887137869628101E-001
 0.101131596663987E+000
 0.105402857683107E+000
 0.239804968919006E+000
 0.213753383936701E+000
 0.213090026314862E+000
 0.223328955269900E+000
 0.224953626866096E+000
 0.259373054887790E+000
 0.267685087128024E+000
 0.250207942455874E+000
 0.230421412227291E+000
 0.276437728620269E+000
 0.266184040724440E+000
 0.245762438405736E+000
 0.431118889249048E+000
 0.478538821118192E+000
 0.406761144957303E+000
 0.447801574842641E+000
 0.257089558617980E+000
 0.212723623742181E+000
 0.211052117541644E+000
 0.232167490877432E+000
 0.342439841486892E+000
 0.294781956206704E+000
 0.290564340260279E+000
 0.308852608673330E+000
 0.245437430070013E+000
 0.194397058047634E+000