# vtk DataFile Version 3.0
Unstructured Grid
ASCII
DATASET UNSTRUCTURED_GRID
FIELD FieldData 1
TIME 1 1 float
  0.482085E+02
POINTS         2102 double
 0.000000000000000E+000 0.000000000000000E+000 0.000000000000000E+000
 0.100000000000000E+001 0.000000000000000E+000 0.000000000000000E+000
 0.100000000000000E+001 0.100000000000000E+001 0.000000000000000E+000
 0.000000000000000E+000 0.100000000000000E+001 0.000000000000000E+000
 0.125000000000000E+000 0.250000000000000E+000 0.000000000000000E+000
 0.375000000000000E+000 0.250000000000000E+000 0.000000000000000E+000
 0.375000000000000E+000 0.750000000000000E+000 0.000000000000000E+000
 0.125000000000000E+000 0.750000000000000E+000 0.000000000000000E+000
 0.625000000000000E+000 0.250000000000000E+000 0.000000000000000E+000
 0.875000000000000E+000 0.250000000000000E+000 0.000000000000000E+000
 0.875000000000000E+000 0.750000000000000E+000 0.000000000000000E+000
 0.625000000000000E+000 0.750000000000000E+000 0.000000000000000E+000
 0.100000000000000E+001 0.500000000000000E+000 0.000000000000000E+000
 0.000000000000000E+000 0.500000000000000E+000 0.000000000000000E+000
 0.500000000000000E+000 0.000000000000000E+000 0.000000000000000E+000
 0.125000000000000E+000 0.500000000000000E+000 0.000000000000000E+000
 0.000000000000000E+000 0.750000000000000E+000 0.000000000000000E+000
 0.000000000000000E+000 0.250000000000000E+000 0.000000000000000E+000
 0.000000000000000E+000 0.875000000000000E+000 0.000000000000000E+000
 0.000000000000000E+000 0.125000000000000E+000 0.000000000000000E+000
 0.000000000000000E+000 0.812500000000000E+000 0.000000000000000E+000
 0.625000000000000E-001 0.812500000000000E+000 0.000000000000000E+000
 0.125000000000000E+000 0.375000000000000E+000 0.000000000000000E+000
 0.000000000000000E+000 0.375000000000000E+000 0.000000000000000E+000
 0.125000000000000E+000 0.625000000000000E+000 0.000000000000000E+000
 0.312500000000000E-001 0.781250000000000E+000 0.000000000000000E+000
 0.000000000000000E+000 0.625000000000000E+000 0.000000000000000E+000
 0.781250000000000E-001 0.765625000000000E+000 0.000000000000000E+000
 0.312500000000000E-001 0.843750000000000E+000 0.000000000000000E+000
 0.500000000000000E+000 0.100000000000000E+001 0.000000000000000E+000
 0.852352799227800E-001 0.850726351351351E+000 0.000000000000000E+000
 0.531250000000000E-001 0.896875000000000E+000 0.000000000000000E+000
 0.128125000000000E+000 0.862500000000000E+000 0.000000000000000E+000
 0.125000000000000E+000 0.100000000000000E+001 0.000000000000000E+000
 0.250000000000000E+000 0.750000000000000E+000 0.000000000000000E+000
 0.000000000000000E+000 0.937500000000000E+000 0.000000000000000E+000
 0.250000000000000E+000 0.100000000000000E+001 0.000000000000000E+000
 0.117915518486872E+000 0.805415518486872E+000 0.000000000000000E+000
 0.201656717908302E+000 0.819893736067327E+000 0.000000000000000E+000
 0.181985294117647E-001 0.906250000000000E+000 0.000000000000000E+000
 0.157158578892515E+000 0.827852167423944E+000 0.000000000000000E+000
 0.187500000000000E+000 0.750000000000000E+000 0.000000000000000E+000
 0.190370748034901E+000 0.885171153579592E+000 0.000000000000000E+000
 0.173219498992632E+000 0.789273026175030E+000 0.000000000000000E+000
 0.125000000000000E+000 0.687500000000000E+000 0.000000000000000E+000
 0.000000000000000E+000 0.687500000000000E+000 0.000000000000000E+000
 0.441080729166667E-001 0.732584635416667E+000 0.000000000000000E+000
 0.625000000000000E-001 0.100000000000000E+001 0.000000000000000E+000
 0.324539302647226E+000 0.874753539998500E+000 0.000000000000000E+000
 0.138239725210285E+000 0.931515391482052E+000 0.000000000000000E+000
 0.218750000000000E+000 0.780050991479902E+000 0.000000000000000E+000
 0.282595248614805E+000 0.815169690490412E+000 0.000000000000000E+000
 0.241894668607517E+000 0.813568527927710E+000 0.000000000000000E+000
 0.259830219207979E+000 0.875750318441249E+000 0.000000000000000E+000
 0.375000000000000E+000 0.687500000000000E+000 0.000000000000000E+000
 0.894072114981556E-001 0.718750000000000E+000 0.000000000000000E+000
 0.156250000000000E+000 0.718750000000000E+000 0.000000000000000E+000
 0.171875000000000E+000 0.671875000000000E+000 0.000000000000000E+000
 0.208984375000000E+000 0.705078125000000E+000 0.000000000000000E+000
 0.187500000000000E+000 0.100000000000000E+001 0.000000000000000E+000
 0.100742481264918E+000 0.901762004578004E+000 0.000000000000000E+000
 0.897955050140944E-001 0.954063112745616E+000 0.000000000000000E+000
 0.454072994832874E-001 0.943019090840959E+000 0.000000000000000E+000
 0.312500000000000E-001 0.978320013898389E+000 0.000000000000000E+000
 0.151802024837252E+000 0.894278844061106E+000 0.000000000000000E+000
 0.312500000000000E+000 0.750000000000000E+000 0.000000000000000E+000
 0.349824395642442E+000 0.812398913150492E+000 0.000000000000000E+000
 0.291845278223558E+000 0.853213315943310E+000 0.000000000000000E+000
 0.312500000000000E+000 0.100000000000000E+001 0.000000000000000E+000
 0.221920040905101E+000 0.857011448773234E+000 0.000000000000000E+000
 0.610875609743251E-001 0.656250000000000E+000 0.000000000000000E+000
 0.575501251937821E-001 0.695518883967223E+000 0.000000000000000E+000
 0.229414059980049E+000 0.912264575939035E+000 0.000000000000000E+000
 0.267409472953924E+000 0.912989160289387E+000 0.000000000000000E+000
 0.247617500704634E+000 0.954276202159214E+000 0.000000000000000E+000
 0.186156415773925E+000 0.932922904662876E+000 0.000000000000000E+000
 0.161177138586098E+000 0.966975254724362E+000 0.000000000000000E+000
 0.281250000000000E+000 0.775106270475024E+000 0.000000000000000E+000
 0.232477697233870E+000 0.641481728091557E+000 0.000000000000000E+000
 0.375000000000000E+000 0.500000000000000E+000 0.000000000000000E+000
 0.343750000000000E+000 0.773669964712841E+000 0.000000000000000E+000
 0.500000000000000E+000 0.836710937419870E+000 0.000000000000000E+000
 0.625000000000000E-001 0.460493798860530E+000 0.000000000000000E+000
 0.225506433867106E-001 0.656250000000000E+000 0.000000000000000E+000
 0.625000000000000E-001 0.578156919744020E+000 0.000000000000000E+000
 0.100683627400278E+000 0.656250000000000E+000 0.000000000000000E+000
 0.808855941873017E-001 0.617548766045778E+000 0.000000000000000E+000
 0.396623706279028E-001 0.612802597169787E+000 0.000000000000000E+000
 0.000000000000000E+000 0.562500000000000E+000 0.000000000000000E+000
 0.209099082089092E+000 0.966015356758449E+000 0.000000000000000E+000
 0.208176344887401E+000 0.668642063067022E+000 0.000000000000000E+000
 0.375000000000000E+000 0.625000000000000E+000 0.000000000000000E+000
 0.281250000000000E+000 0.727693574222975E+000 0.000000000000000E+000
 0.410395729589754E-001 0.531250000000000E+000 0.000000000000000E+000
 0.243044505147503E+000 0.715165207256627E+000 0.000000000000000E+000
 0.427668699245901E+000 0.807527989856971E+000 0.000000000000000E+000
 0.375000000000000E+000 0.100000000000000E+001 0.000000000000000E+000
 0.396556497766215E+000 0.872516538744482E+000 0.000000000000000E+000
 0.125000000000000E+000 0.562500000000000E+000 0.000000000000000E+000
 0.386020873411304E-001 0.491878123024719E+000 0.000000000000000E+000
 0.837862679783012E-001 0.496009823563561E+000 0.000000000000000E+000
 0.181474703505393E+000 0.615400296494607E+000 0.000000000000000E+000
 0.156642498481761E+000 0.640232501518239E+000 0.000000000000000E+000
 0.148741293073547E+000 0.593750000000000E+000 0.000000000000000E+000
 0.198570897886273E+000 0.531250000000000E+000 0.000000000000000E+000
 0.186280074550956E+000 0.572564766212389E+000 0.000000000000000E+000
 0.261115628859886E+000 0.572342169151976E+000 0.000000000000000E+000
 0.223664380580028E+000 0.561200712513239E+000 0.000000000000000E+000
 0.260913847788851E+000 0.504504802962447E+000 0.000000000000000E+000
 0.220403809070327E+000 0.602182935170118E+000 0.000000000000000E+000
 0.280942357260745E+000 0.670965807217831E+000 0.000000000000000E+000
 0.303530083216233E+000 0.699208028468857E+000 0.000000000000000E+000
 0.244300952472090E+000 0.677895460994186E+000 0.000000000000000E+000
 0.278676255979588E+000 0.620116626474426E+000 0.000000000000000E+000
 0.375000000000000E+000 0.562500000000000E+000 0.000000000000000E+000
 0.294783395930685E+000 0.587081428049465E+000 0.000000000000000E+000
 0.296390010773290E+000 0.538188197482711E+000 0.000000000000000E+000
 0.326808615275446E+000 0.623140446700340E+000 0.000000000000000E+000
 0.375000000000000E+000 0.375000000000000E+000 0.000000000000000E+000
 0.341600259444201E+000 0.531250000000000E+000 0.000000000000000E+000
 0.337040360926244E+000 0.581802448479955E+000 0.000000000000000E+000
 0.313454820588085E+000 0.656240056545723E+000 0.000000000000000E+000
 0.244117968371280E+000 0.386059455330322E+000 0.000000000000000E+000
 0.316730626055850E+000 0.471195859600445E+000 0.000000000000000E+000
 0.343361747898823E+000 0.718361747898823E+000 0.000000000000000E+000
 0.387582141166944E+000 0.791354577928815E+000 0.000000000000000E+000
 0.394629419637968E+000 0.831652479273046E+000 0.000000000000000E+000
 0.359139968398398E+000 0.852480346691833E+000 0.000000000000000E+000
 0.449407668689709E+000 0.857876667231944E+000 0.000000000000000E+000
 0.504433083654504E+000 0.918355468709935E+000 0.000000000000000E+000
 0.438910290808154E+000 0.922698775777408E+000 0.000000000000000E+000
 0.487684842153978E+000 0.878322236197629E+000 0.000000000000000E+000
 0.750000000000000E+000 0.100000000000000E+001 0.000000000000000E+000
 0.429264219376497E+000 0.887875644335434E+000 0.000000000000000E+000
 0.297282757956014E+000 0.952697072250340E+000 0.000000000000000E+000
 0.308758340495749E+000 0.912972519020668E+000 0.000000000000000E+000
 0.353713070703707E+000 0.947478792032462E+000 0.000000000000000E+000
 0.343750000000000E+000 0.982091257636542E+000 0.000000000000000E+000
 0.437500000000000E+000 0.100000000000000E+001 0.000000000000000E+000
 0.386196294810884E+000 0.916319687483247E+000 0.000000000000000E+000
[...]
CELL_DATA         4076
SCALARS tdens double 1
LOOKUP_TABLE default
 0.100000000000000E-011
 0.100000000000000E-011
 0.100000000000000E-011
 0.100000000000000E-011
 0.368172784561241E-010
 0.190486550131773E-010
 0.187860503759008E-010
 0.202982993098771E-010
 0.109507817778212E+000
 0.669048789107036E+000
 0.767394537035246E-002
 0.296762262557060E+000
 0.100000000000000E-011
 0.100000000000000E-011
 0.100000000000000E-011
 0.100000000000000E-011
 0.100000000000000E-011
 0.100000000000000E-011
 0.100000000000000E-011
 0.100000000000000E-011
 0.100000000000000E-011
 0.100000000000000E-011
 0.100000000000000E-011
 0.100000000000000E-011
 0.233894720837739E-002
 0.222754053106988E-002
 0.286134498161969E-001
 0.149949172605274E-001
 0.616520126918637E-010
 0.183033395538422E-009
 0.117748574734434E-009
 0.126505900684194E-009
 0.819702857845087E-009
 0.251447588144767E-009
 0.507184641046235E-009
 0.544907996593307E-009
 0.100000000000000E-011
 0.100000000000000E-011
 0.100000000000000E-011
 0.100000000000000E-011
 0.227343895337219E-011
 0.170386457487848E-011
 0.158739355691719E-011
 0.178169353123075E-011
 0.584608003220894E-004
 0.127747506279554E-004
 0.450453291559544E-004
 0.170085268987296E-004
 0.100000000000000E-011
 0.100000000000000E-011
 0.100000000000000E-011
 0.100000000000000E-011
 0.234441074072755E-002
 0.272669905235047E-002
 0.198855635720546E+000
 0.159251299951547E-001
 0.564606727740067E-011
 0.386509170079209E-011
 0.389932191193855E-011
 0.421654150330443E-011
 0.141298324339636E-010
 0.882207110023444E-011
 0.619075530741132E-011
 0.903507814794994E-011
 0.100000000000000E-011
 0.100000000000000E-011
 0.100000000000000E-011
 0.100000000000000E-011
 0.100000000000000E-011
 0.100000000000000E-011
 0.100000000000000E-011
 0.100000000000000E-011
 0.100000000000000E-011
 0.100000000000000E-011
 0.100000000000000E-011
 0.100000000000000E-011
 0.772675106428159E-007
 0.178454367781143E-005
 0.122374690924003E-007
 0.469491634534884E-007
 0.349875083380113E-001
 0.839106837270408E-001
 0.118641032721718E-001
 0.187795037556416E-001
 0.100000000000000E-011
 0.100000000000000E-011
 0.100000000000000E-011
 0.100000000000000E-011
 0.152559057884324E-001
 0.554374050067181E-001
 0.937988386511646E-001
 0.430715661736496E-001
 0.100000000000000E-011
 0.100000000000000E-011
 0.100000000000000E-011
 0.100000000000000E-011
 0.122033855093759E-001
 0.248988090607609E-002
 0.696623723012008E-001
 0.209872410616819E-001
 0.637432689964908E-011
 0.306783217858859E-011
 0.291223564102190E-011
 0.335269958396144E-011
 0.100000000000000E-011
 0.100000000000000E-011
 0.100000000000000E-011
 0.100000000000000E-011
 0.126063790254696E+001
 0.541123529339670E-002
 0.151481881035385E+000
 0.389990828072806E+000
 0.100000000000000E-011
 0.100000000000000E-011
 0.100000000000000E-011
 0.100000000000000E-011
 0.223971927971096E-011
 0.100000000000000E-011
 0.100000000000000E-011
 0.100000000000000E-011
 0.100000000000000E-011
 0.100000000000000E-011
 0.100000000000000E-011
 0.100000000000000E-011
 0.100000000000000E-011
 0.100000000000000E-011
 0.100000000000000E-011
 0.100000000000000E-011
 0.100000000000000E-011
 0.197563519777827E-011
 0.100000000000000E-011
 0.100000000000000E-011
 0.100000000000000E-011
 0.100000000000000E-011
 0.100000000000000E-011
 0.100000000000000E-011
 0.100000000000000E-011
 0.100000000000000E-011
 0.100000000000000E-011
 0.100000000000000E-011
 0.261436967942175E+000
 0.285472885535437E-002
 0.328600980015841E+000
 0.546732782211898E+000
 0.100000000000000E-011
 0.100000000000000E-011
 0.164774909389282E-011
 0.100000000000000E-011
 0.100000000000000E-011
 0.100000000000000E-011
 0.100000000000000E-011
 0.100000000000000E-011
 0.100000000000000E-011
 0.100000000000000E-011
 0.100000000000000E-011
 0.100000000000000E-011
 0.100000000000000E-011
 0.100000000000000E-011
 0.100000000000000E-011
 0.100000000000000E-011
 0.100000000000000E-011
 0.100000000000000E-011
 0.100000000000000E-011
 0.100000000000000E-011
 0.100000000000000E-011
 0.100000000000000E-011
 0.154091784577655E-011
 0.100000000000000E-011
 0.100000000000000E-011
 0.100000000000000E-011
 0.100000000000000E-011
 0.100000000000000E-011
 0.100000000000000E-011
 0.100000000000000E-011
 0.100000000000000E-011
 0.100000000000000E-011
 0.416166307598917E-011
 0.606879288893616E-011
 0.623031643086468E-011
 0.566409929524127E-011
 0.100000000000000E-011
 0.100000000000000E-011
 0.100000000000000E-011
 0.100000000000000E-011
 0.122544045392272E-009
 0.172832868521153E-009
 0.375412733944116E-010
 0.122856003631181E-009
 0.477358505877954E-011
 0.130858436321428E-011
 0.620062156288741E-011
 0.347933593987615E-011
 0.100000000000000E-011
 0.100000000000000E-011
 0.100000000000000E-011
 0.100000000000000E-011
 0.100000000000000E-011
 0.100000000000000E-011
 0.100000000000000E-011
 0.100000000000000E-011
 0.100000000000000E-011
 0.100000000000000E-011
 0.100000000000000E-011
 0.100000000000000E-011
 0.100000000000000E-011
 0.100000000000000E-011
 0.100000000000000E-011
 0.100000000000000E-011
 0.139295494714168E+000
 0.102804726532467E+000
 0.205887400345789E+000
 0.188674013758359E+000
 0.100000000000000E-011
 0.100000000000000E-011
 0.100000000000000E-011
 0.100000000000000E-011
 0.100000000000000E-011
 0.100000000000000E-011
 0.100000000000000E-011
 0.100000000000000E-011
 0.716162242430637E-010
 0.123214753294730E-009
 0.147058125601612E-010
 0.286392090468083E-010
 0.100000000000000E-011
 0.100000000000000E-011
 0.100000000000000E-011
 0.100000000000000E-011
 0.100000000000000E-011
 0.100000000000000E-011
 0.100000000000000E-011
 0.100000000000000E-011
 0.100000000000000E-011
 0.100000000000000E-011
 0.100000000000000E-011
 0.100000000000000E-011
 0.100000000000000E-011
 0.100000000000000E-011
 0.100000000000000E-011
 0.100000000000000E-011
 0.100000000000000E-011
 0.100000000000000E-011
 0.100000000000000E-011
 0.100000000000000E-011
 0.181086467664311E-011
 0.405292476831625E-011
 0.336875943993316E-011
 0.335783731965359E-011
 0.107032771273049E-011
 0.146166718231053E-011
 0.256095432601741E-011
 0.144063595926348E-011
 0.159978463211085E-009
 0.248109693267391E-009
 0.497455874379077E-010
 0.113762745966824E-009
 0.109052165512858E-001
 0.492503265682129E-001
 0.242180451487017E-002
 0.178433535921230E-001
 0.102016321573657E-010
 0.618756954257522E-011
 0.165661661192781E-010
 0.108828802917489E-010
 0.100000000000000E-011
 0.100000000000000E-011
 0.100000000000000E-011
 0.100000000000000E-011
 0.112650636754290E-011
 0.364982691710523E-011
 0.152137879006467E-011
 0.172886638626979E-011
 0.258144989163448E-010
 0.121457564247160E-010
 0.561674968782294E-010
 0.301405772765937E-010
 0.100000000000000E-011
 0.100000000000000E-011
 0.100000000000000E-011
 0.100000000000000E-011
 0.100000000000000E-011
 0.100000000000000E-011
 0.100000000000000E-011
 0.100000000000000E-011
 0.100000000000000E-011
 0.100000000000000E-011
 0.100000000000000E-011
 0.100000000000000E-011
 0.100000000000000E-011
 0.100000000000000E-011
 0.100000000000000E-011
 0.100000000000000E-011
 0.100000000000000E-011
 0.100000000000000E-011
 0.100000000000000E-011
 0.100000000000000E-011
 0.100000000000000E-011
 0.100000000000000E-011
 0.100000000000000E-011
 0.100000000000000E-011
 0.708548970058743E-011
 0.839444586224221E-011
 0.207690622255322E-010
 0.863360177275401E-011
 0.144793306783808E-011
 0.112371823123822E-011
 0.156674629143633E-011
 0.139578817472607E-011
 0.100000000000000E-011
 0.100000000000000E-011
 0.100000000000000E-011
 0.100000000000000E-011
 0.100000000000000E-011
 0.100000000000000E-011
 0.100000000000000E-011
 0.100000000000000E-011
 0.729799073596745E-010
 0.193818895068831E-010
 0.310908216281074E-010
 0.333569066794916E-010
 0.894432526603133E-011
 0.177335054284155E-010
 0.645577609076730E-011
 0.828010138624472E-011
 0.905859398731149E-009
 0.763816968186650E-008
 0.453741859102804E-008
 0.619001057112450E-008
 0.113197172691966E-010
 0.149189515407382E-010
 0.800422648115189E-011
 0.106097616208678E-010
 0.150329530524139E-009
 0.506436927267987E-010
 0.229166644780416E-009
 0.117771989640396E-009
 0.533223209060439E-011
 0.325888369243023E-011
 0.670324391923424E-011
 0.546924973936839E-011
 0.235422474169761E-011
 0.274965759962431E-011
 0.423056557635349E-011
 0.280934667567572E-011
 0.242817830144107E-011
 0.190912833715098E-011
 0.108521976361631E-011
 0.191672609467402E-011
 0.356857500335214E-007
 0.493936903426566E-004
 0.804439450337190E+001
 0.430775093042548E-004
 0.653130285103551E-001
 0.140878870111358E-005
 0.860026637733843E-001
 0.409124798237015E-001
 0.100000000000000E-011
 0.100000000000000E-011
 0.100898319611097E-011
 0.100000000000000E-011
 0.100000000000000E-011
 0.100000000000000E-011
 0.100000000000000E-011
 0.100000000000000E-011
 0.227142582345282E-001
 0.567690952851993E+000
 0.406622076732675E+000
 0.609536313122361E+000
 0.316808745047291E-002
 0.255264019032006E-002
 0.328492918752127E-001
 0.138646244087793E-001
 0.237686910799845E-002
 0.236124233280493E-001
 0.222713562523709E-002
 0.129060425946425E-001
 0.602728306521471E-001
 0.142742437155797E-001
 0.678230712972623E-001
 0.219542019528486E-001
 0.139648792580771E-001
 0.266660211442334E-002
 0.188825708259818E+000
 0.873508716634945E-002
 0.151868190247174E-001
 0.123590240454775E-001
 0.625951605812325E-001
 0.531316262965107E-002
 0.100000000000000E-011
 0.100000000000000E-011
 0.100000000000000E-011
 0.100000000000000E-011
 0.100000000000000E-011
 0.100000000000000E-011
 0.100000000000000E-011
 0.100000000000000E-011
 0.100000000000000E-011
 0.100000000000000E-011
 0.100000000000000E-011
 0.100000000000000E-011
 0.100000000000000E-011
 0.100000000000000E-011
 0.100000000000000E-011
 0.100000000000000E-011
 0.100000000000000E-011
 0.100000000000000E-011
 0.100000000000000E-011
 0.100000000000000E-011
 0.100000000000000E-011
 0.100000000000000E-011
 0.100000000000000E-011
 0.100000000000000E-011
 0.100000000000000E-011
 0.100000000000000E-011
 0.100000000000000E-011
 0.100000000000000E-011
 0.100000000000000E-011
 0.100000000000000E-011
 0.100000000000000E-011
 0.100000000000000E-011
 0.100000000000000E-011
 0.100000000000000E-011
 0.100000000000000E-011
 0.100000000000000E-011
 0.100000000000000E-011
 0.100000000000000E-011
 0.100000000000000E-011
 0.100000000000000E-011
 0.100000000000000E-011
 0.100000000000000E-011
 0.100000000000000E-011
 0.100000000000000E-011
 0.530519006330583E-008
 0.753007532151647E-009
 0.448502994520451E-009
 0.804149190428836E-009
 0.233982667101189E+000
 0.623924734492455E+000
 0.337663843070068E+000
 0.325008773206868E+000
 0.980943015812954E-010
 0.299172391836332E-009
 0.164064737498490E-009
 0.158775489337579E-009
 0.100000000000000E-011
 0.100000000000000E-011
 0.100000000000000E-011
 0.100000000000000E-011
 0.237452363613794E-010
 0.949134273043940E-011
 0.176094147467179E-010
 0.177716587033840E-010
 0.128376946499152E-011
 0.153676557032814E-011
 0.109141341425443E-011
 0.128422462411967E-011
 0.100000000000000E-011
 0.100000000000000E-011
 0.100000000000000E-011
 0.100000000000000E-011
 0.100000000000000E-011
 0.100000000000000E-011
 0.100000000000000E-011
 0.100000000000000E-011
 0.699196856147630E-011
 0.313742102909256E-011
 0.457078462782253E-011
 0.432032692527472E-011
 0.110800147015721E-011
 0.178772591863350E-011
 0.187972146445015E-011
 0.165404328338353E-011
 0.100000000000000E-011
 0.100000000000000E-011
 0.100000000000000E-011
 0.100000000000000E-011
 0.100000000000000E-011
 0.100000000000000E-011
 0.100000000000000E-011
 0.100000000000000E-011
 0.100000000000000E-011
 0.100000000000000E-011
 0.100000000000000E-011
 0.100000000000000E-011
 0.100000000000000E-011
 0.100000000000000E-011
 0.100000000000000E-011
 0.100000000000000E-011
 0.160336353895401E-011
 0.100000000000000E-011
 0.100000000000000E-011
 0.105830777822908E-011
 0.131502297274924E-011
 0.106565212132899E-011
 0.180051315083537E-011
 0.133665620693612E-011
 0.384051898560335E-011
 0.246293279926643E-011
 0.419141220227416E-011
 0.371445527880157E-011
 0.100000000000000E-011
 0.100000000000000E-011
 0.100000000000000E-011
 0.100000000000000E-011
 0.100000000000000E-011
 0.102089365213342E-011
 0.100000000000000E-011
 0.100000000000000E-011
 0.100000000000000E-011
 0.100000000000000E-011
 0.100000000000000E-011
 0.100000000000000E-011
 0.100000000000000E-011
 0.100000000000000E-011
 0.100000000000000E-011
 0.100000000000000E-011
 0.100000000000000E-011
 0.100000000000000E-011
 0.100000000000000E-011
 0.100000000000000E-011
 0.100000000000000E-011
 0.100000000000000E-011
 0.100000000000000E-011
 0.100000000000000E-011
 0.195150401116863E-010
 0.764089184058804E-010
 0.256666342597157E-010
 0.259435469362384E-010
 0.110876951440683E-008
 0.881368717900833E-008
 0.408908904668699E-009
 0.195582861682258E-008
 0.198054996627948E-002
 0.146016824505123E-001
 0.149308579175860E-001
 0.462454634151610E-002
 0.177862265538619E+001
 0.101633236223580E-001
 0.171659151800454E+001
 0.181648359197559E+001
 0.118953196202735E+000
 0.489530646936330E-002
 0.694700443469474E-001
 0.148949212794343E+000
 0.898964224931633E+000
 0.165442848478833E-001
 0.392079065831299E+000
 0.364148388673176E+000
 0.272892929230416E-009
 0.587529153539721E-009
 0.190639547125532E-008
 0.498167789439911E-009
 0.169509383932832E-009
 0.554459145212242E-010
 0.382595528300538E-010
 0.548587045850534E-010
 0.146187299874134E-011
 0.159386970590248E-011
 0.130804335244137E-011
 0.144441456047338E-011
 0.100000000000000E-011
 0.100000000000000E-011
 0.100000000000000E-011
 0.100000000000000E-011
 0.332036204988631E-010
 0.470639037196134E-010
 0.808973407569800E-010
 0.441031647772939E-010
 0.100000000000000E-011
 0.100000000000000E-011
 0.102889531809849E-011
 0.100000000000000E-011
 0.100000000000000E-011
 0.100000000000000E-011
 0.100000000000000E-011
 0.100000000000000E-011
 0.100000000000000E-011
 0.100000000000000E-011
 0.100000000000000E-011
 0.100000000000000E-011
 0.100000000000000E-011
 0.100000000000000E-011
 0.100000000000000E-011
 0.100000000000000E-011
 0.100000000000000E-011
 0.100000000000000E-011
 0.100000000000000E-011
 0.100000000000000E-011
 0.100000000000000E-011
 0.100000000000000E-011
 0.100000000000000E-011
 0.100000000000000E-011
 0.100000000000000E-011
 0.100000000000000E-011
 0.100000000000000E-011
 0.100000000000000E-011
 0.100000000000000E-011
 0.100000000000000E-011
 0.100000000000000E-011
 0.100000000000000E-011
 0.522094722389575E-002
 0.105282416204029E+000
 0.120541171652120E-002
 0.129770633402877E-001
 0.100000000000000E-011
 0.100000000000000E-011
 0.100000000000000E-011
 0.100000000000000E-011
 0.100000000000000E-011
 0.100000000000000E-011
 0.100000000000000E-011
 0.100000000000000E-011
 0.100000000000000E-011
 0.100000000000000E-011
 0.100000000000000E-011
 0.100000000000000E-011
 0.100000000000000E-011
 0.100000000000000E-011
 0.100000000000000E-011
 0.100000000000000E-011
 0.100000000000000E-011
 0.100000000000000E-011
 0.100000000000000E-011
 0.100000000000000E-011
 0.118851555329195E-008
 0.277843895575873E-008
 0.338732201672867E-007
 0.137837101375553E-008
 0.262341857979022E+000
 0.100189938298349E-001
 0.676410566611593E-002
 0.102190723479255E-001
 0.846003727108191E-007
 0.138872982770542E-005
 0.195272338136249E-004
 0.416187287852354E-006
 0.130164968819239E-001
 0.327740970813430E-001
 0.521104193533063E-003
 0.464204288913648E-002
 0.236669211007120E-001
 0.289409323335078E-001
 0.143039068676011E-001
 0.189868945365072E-001
 0.437771772899672E+000
 0.156411508693592E+000
 0.151261199697814E+000
 0.291605473703978E+000
 0.174560092077269E+001
 0.554761811092172E+000
 0.288062601252370E+001
 0.106953959274354E+001
 0.100000000000000E-011
 0.100000000000000E-011
 0.100000000000000E-011
 0.100000000000000E-011
 0.623754076015510E-001
 0.803549163610173E-001
 0.847503954459496E+000
 0.970324694641204E-001
 0.668728058066486E-001
 0.397875392746842E-001
 0.111486489879757E-001
 0.166382302885887E-001
 0.895491161835207E-011
 0.161804824701939E-010
 0.118151297177852E-010
 0.119170701095533E-010
 0.208026072216891E-010
 0.110621104451279E-010
 0.716282577662790E-011
 0.115786322719323E-010
 0.639351609107173E-011
 0.736594722565082E-011
 0.921066444306849E-011
 0.741952532286490E-011
 0.108930421756597E-011
 0.104388615619001E-011
 0.133588082236547E-011
 0.111972641917745E-011
 0.388309810854043E-010
 0.368627521549332E-010
 0.169625713980096E-010
 0.357387672163464E-010
 0.100000000000000E-011
 0.100000000000000E-011
 0.100000000000000E-011
 0.100000000000000E-011
 0.100000000000000E-011
 0.100000000000000E-011
 0.100000000000000E-011
 0.100000000000000E-011
 0.100000000000000E-011
 0.100000000000000E-011
 0.100000000000000E-011
 0.100000000000000E-011
 0.100000000000000E-011
 0.100000000000000E-011
 0.100000000000000E-011
 0.100000000000000E-011
 0.100000000000000E-011
 0.100000000000000E-011
 0.100000000000000E-011
 0.100000000000000E-011
 0.100000000000000E-011
 0.100000000000000E-011
 0.100000000000000E-011
 0.100000000000000E-011
 0.643319365320539E-001
 0.162812608451867E+000
 0.435071392994393E-001
 0.862178171179274E-001
 0.102927635770442E+000
 0.119519008996946E-001
 0.238164667477768E-001
 0.802250590122499E-001
 0.144956028044290E-001
 0.529129224014290E-001
 0.218323152181466E-001
 0.972310838957248E-002
 0.308544024365298E-001
 0.322258390899376E-001
 0.121813931158505E-001
 0.213784516188264E-001
 0.203097480314823E-002
 0.204997692940097E-002
 0.147092788821615E-001
 0.836469572478702E-002
 0.839662711510014E-002
 0.314475564888532E-002
 0.248927981847673E-002
 0.121030624449583E-001
 0.289666515649300E+000
 0.617979413545747E+000
 0.480643103129771E+000
 0.202641739599193E+000
 0.560420139504527E-002
 0.376830723140860E-002
 0.581847543542701E-002
 0.167733799070050E-002
 0.194651466985971E-001
 0.100380951810719E+000
 0.127487398936568E-002
 0.788899105634327E-001
 0.239925820171740E+000
 0.123252504899963E-001
 0.353994154119370E-001
 0.138168873964437E-001
 0.184618936593114E-001
 0.146684384534966E-001
 0.578195630440556E-001
 0.205739877109144E-002
 0.168711049615589E-001
 0.124857525085179E-001
 0.343384647924605E-001
 0.724389299285336E-003
 0.715092876738172E-002
 0.510827640534789E-003
 0.664677792301854E-002
 0.492049251543023E-002
 0.530483299674803E-001
 0.846235748920657E+000
 0.670596031346188E+000
 0.965903492344299E+000
 0.487946993401474E-001
 0.193191753682422E-001
 0.722125060050408E-001
 0.263749080639099E-001
 0.305727418725717E+001
 0.771672439329055E+000
 0.254513499968031E+001
 0.239744684812353E+001
 0.144472948201653E+000
 0.544956928406034E-001
 0.607963654221592E-002
 0.202487375435850E-001
 0.428028972831270E-001
 0.741731963543510E+000
 0.434145896231719E-001
 0.574427274334365E-001
 0.167139737097569E-001
 0.493094548307984E-001
 0.323276499435199E-001
 0.671675069940221E-001
 0.288219629197363E-001
 0.951277290161080E-002
 0.357065850539638E-002
 0.171032253539690E-002
 0.736960942843065E-002
 0.786833004606786E-002
 0.880540511208807E-002
 0.773723232716123E-006
 0.846464225346335E-001
 0.167573002724303E+000
 0.118131955609692E+000
 0.442154791846217E-001
 0.791358847059240E+000
 0.591133249516708E-001
 0.101907320684020E+001
 0.121175420711169E+001
 0.212738237813743E-001
 0.140155652117376E+000
 0.188362554923927E+000
 0.101750589975688E+000
 0.829772644114649E-001
 0.152347603404609E+001
 0.463316934868982E-001
 0.330108193815899E-001
 0.962414544497575E+000
 0.140530866494540E+000
 0.423592643926559E+001
 0.291150662783550E+001
 0.104443629114939E-001
 0.176307425617289E-003
 0.357168784919462E-001
 0.265199507981715E-001
 0.226507994459318E-002
 0.144382305543944E-001
 0.708676605131423E-001
 0.480113580551584E-002
 0.101461893387562E-001
 0.357600320627459E-003
 0.111298326709248E+000
 0.845182555669095E-002
 0.146091076528719E-001
 0.451241028593973E+001
 0.280433617583720E-001
 0.666233289109665E-001
 0.204010619747796E-001
 0.472484035480124E-001