# vtk DataFile Version 3.0
Unstructured Grid
ASCII
DATASET UNSTRUCTURED_GRID
FIELD FieldData 1
TIME 1 1 float
  0.202153E+02
POINTS         1241 double
 0.000000000000000E+000 0.000000000000000E+000 0.000000000000000E+000
 0.100000000000000E+001 0.000000000000000E+000 0.000000000000000E+000
 0.100000000000000E+001 0.100000000000000E+001 0.000000000000000E+000
 0.000000000000000E+000 0.100000000000000E+001 0.000000000000000E+000
 0.125000000000000E+000 0.250000000000000E+000 0.000000000000000E+000
 0.375000000000000E+000 0.250000000000000E+000 0.000000000000000E+000
 0.375000000000000E+000 0.750000000000000E+000 0.000000000000000E+000
 0.125000000000000E+000 0.750000000000000E+000 0.000000000000000E+000
 0.625000000000000E+000 0.250000000000000E+000 0.000000000000000E+000
 0.875000000000000E+000 0.250000000000000E+000 0.000000000000000E+000
 0.875000000000000E+000 0.750000000000000E+000 0.000000000000000E+000
 0.625000000000000E+000 0.750000000000000E+000 0.000000000000000E+000
 0.100000000000000E+001 0.500000000000000E+000 0.000000000000000E+000
 0.000000000000000E+000 0.500000000000000E+000 0.000000000000000E+000
 0.500000000000000E+000 0.000000000000000E+000 0.000000000000000E+000
 0.125000000000000E+000 0.500000000000000E+000 0.000000000000000E+000
 0.000000000000000E+000 0.750000000000000E+000 0.000000000000000E+000
 0.000000000000000E+000 0.250000000000000E+000 0.000000000000000E+000
 0.000000000000000E+000 0.875000000000000E+000 0.000000000000000E+000
 0.308529810216860E+000 0.500255759132561E+000 0.000000000000000E+000
 0.250000000000000E+000 0.000000000000000E+000 0.000000000000000E+000
 0.125000000000000E+000 0.375000000000000E+000 0.000000000000000E+000
 0.125000000000000E+000 0.625000000000000E+000 0.000000000000000E+000
 0.000000000000000E+000 0.375000000000000E+000 0.000000000000000E+000
 0.000000000000000E+000 0.437500000000000E+000 0.000000000000000E+000
 0.625000000000000E-001 0.406250000000000E+000 0.000000000000000E+000
 0.125000000000000E+000 0.437500000000000E+000 0.000000000000000E+000
 0.216796875000000E+000 0.382812500000000E+000 0.000000000000000E+000
 0.183593750000000E+000 0.468750000000000E+000 0.000000000000000E+000
 0.375000000000000E+000 0.500000000000000E+000 0.000000000000000E+000
 0.250000000000000E+000 0.468750000000000E+000 0.000000000000000E+000
 0.625000000000000E-001 0.481770833333333E+000 0.000000000000000E+000
 0.184176834650379E+000 0.540399924344460E+000 0.000000000000000E+000
 0.216796875000000E+000 0.432195490056818E+000 0.000000000000000E+000
 0.168571309840426E+000 0.406250000000000E+000 0.000000000000000E+000
 0.125000000000000E+000 0.687500000000000E+000 0.000000000000000E+000
 0.255828208111702E+000 0.540763692652926E+000 0.000000000000000E+000
 0.375000000000000E+000 0.375000000000000E+000 0.000000000000000E+000
 0.375000000000000E+000 0.625000000000000E+000 0.000000000000000E+000
 0.220170948184400E+000 0.507406813570504E+000 0.000000000000000E+000
 0.219557967718869E+000 0.628145457476636E+000 0.000000000000000E+000
 0.125000000000000E+000 0.562500000000000E+000 0.000000000000000E+000
 0.000000000000000E+000 0.625000000000000E+000 0.000000000000000E+000
 0.375000000000000E+000 0.437500000000000E+000 0.000000000000000E+000
 0.280323303380492E+000 0.407503995028409E+000 0.000000000000000E+000
 0.375000000000000E+000 0.562500000000000E+000 0.000000000000000E+000
 0.219817452482738E+000 0.577034793653623E+000 0.000000000000000E+000
 0.885901781235304E-001 0.531250000000000E+000 0.000000000000000E+000
 0.312500000000000E+000 0.250000000000000E+000 0.000000000000000E+000
 0.297268942273640E+000 0.626076494243052E+000 0.000000000000000E+000
 0.168732375746058E+000 0.593750000000000E+000 0.000000000000000E+000
 0.173890458776596E+000 0.343750000000000E+000 0.000000000000000E+000
 0.183963193611824E+000 0.278873942859495E+000 0.000000000000000E+000
 0.250000000000000E+000 0.250000000000000E+000 0.000000000000000E+000
 0.237162500098357E+000 0.317347265649589E+000 0.000000000000000E+000
 0.250000000000000E+000 0.750000000000000E+000 0.000000000000000E+000
 0.292902283271084E+000 0.575476271929907E+000 0.000000000000000E+000
 0.125000000000000E+000 0.312500000000000E+000 0.000000000000000E+000
 0.585937500000000E-001 0.335937500000000E+000 0.000000000000000E+000
 0.000000000000000E+000 0.312500000000000E+000 0.000000000000000E+000
 0.336992576921227E+000 0.687500000000000E+000 0.000000000000000E+000
 0.312500000000000E+000 0.750000000000000E+000 0.000000000000000E+000
 0.270599706447422E+000 0.686880677247748E+000 0.000000000000000E+000
 0.500000000000000E+000 0.100000000000000E+001 0.000000000000000E+000
 0.250000000000000E+000 0.100000000000000E+001 0.000000000000000E+000
 0.375000000000000E+000 0.100000000000000E+001 0.000000000000000E+000
 0.281250000000000E+000 0.830729166666667E+000 0.000000000000000E+000
 0.343750000000000E+000 0.312500000000000E+000 0.000000000000000E+000
 0.318389033445014E+000 0.364242983277493E+000 0.000000000000000E+000
 0.267787317245899E+000 0.358095790057897E+000 0.000000000000000E+000
 0.289796410792034E+000 0.300414294603983E+000 0.000000000000000E+000
 0.274503756719177E+000 0.737152390322435E-001 0.000000000000000E+000
 0.343750000000000E+000 0.183159722222222E+000 0.000000000000000E+000
 0.246744791666667E+000 0.146267361111111E+000 0.000000000000000E+000
 0.485980902777778E+000 0.146267361111111E+000 0.000000000000000E+000
 0.302262721771688E+000 0.146267361111111E+000 0.000000000000000E+000
 0.274503756719177E+000 0.197313658770435E+000 0.000000000000000E+000
 0.375000000000000E+000 0.000000000000000E+000 0.000000000000000E+000
 0.420862160086615E+000 0.187832617434252E+000 0.000000000000000E+000
 0.384683294119816E+000 0.146267361111111E+000 0.000000000000000E+000
 0.330565923051619E+000 0.413335216176427E+000 0.000000000000000E+000
 0.352621063931298E+000 0.818811625318066E+000 0.000000000000000E+000
 0.312179705605879E+000 0.796288985503351E+000 0.000000000000000E+000
 0.500000000000000E+000 0.828697389616904E+000 0.000000000000000E+000
 0.427559261986282E+000 0.805138192500353E+000 0.000000000000000E+000
 0.399035374849065E+000 0.860999763838749E+000 0.000000000000000E+000
 0.312500000000000E+000 0.000000000000000E+000 0.000000000000000E+000
 0.187500000000000E+000 0.820606518817204E+000 0.000000000000000E+000
 0.466707069430364E+000 0.898575881689250E+000 0.000000000000000E+000
 0.511172798160702E+000 0.257526753061783E+000 0.000000000000000E+000
 0.453250172578119E+000 0.849294180402265E+000 0.000000000000000E+000
 0.937500000000000E-001 0.504496261452806E-001 0.000000000000000E+000
 0.403162177800535E+000 0.933291523780214E+000 0.000000000000000E+000
 0.437500000000000E+000 0.100000000000000E+001 0.000000000000000E+000
 0.312500000000000E+000 0.934315683855312E+000 0.000000000000000E+000
 0.453353205989905E+000 0.949647808263675E+000 0.000000000000000E+000
 0.358054120979715E+000 0.953547171775243E+000 0.000000000000000E+000
 0.325154404090345E+000 0.873991089312954E+000 0.000000000000000E+000
 0.367644435624882E+000 0.899055397729593E+000 0.000000000000000E+000
 0.236990017361111E+000 0.801449092741935E+000 0.000000000000000E+000
 0.443167922913219E+000 0.252288460541578E+000 0.000000000000000E+000
 0.477263196714215E+000 0.204401840413902E+000 0.000000000000000E+000
 0.562394794036017E+000 0.187447086349591E+000 0.000000000000000E+000
 0.625000000000000E+000 0.375000000000000E+000 0.000000000000000E+000
 0.407024191230044E+000 0.312500000000000E+000 0.000000000000000E+000
 0.474084945258901E+000 0.294963270028168E+000 0.000000000000000E+000
 0.216342369774119E+000 0.930487241414522E-001 0.000000000000000E+000
 0.157072243143605E+000 0.162201579117130E+000 0.000000000000000E+000
 0.187500000000000E+000 0.000000000000000E+000 0.000000000000000E+000
 0.174352819470591E+000 0.117036261141583E+000 0.000000000000000E+000
 0.125000000000000E+000 0.000000000000000E+000 0.000000000000000E+000
 0.218750000000000E+000 0.413079239859885E-001 0.000000000000000E+000
 0.131982343008202E+000 0.962324019836500E-001 0.000000000000000E+000
 0.866442243142230E-001 0.109366815743071E+000 0.000000000000000E+000
 0.000000000000000E+000 0.125000000000000E+000 0.000000000000000E+000
 0.156250000000000E+000 0.557461246091935E-001 0.000000000000000E+000
 0.343473007945752E+000 0.889135573360382E-001 0.000000000000000E+000
 0.316206161479800E+000 0.485604570335434E-001 0.000000000000000E+000
 0.430629647389619E+000 0.697713778434944E-001 0.000000000000000E+000
 0.391175490408355E+000 0.981202752650288E-001 0.000000000000000E+000
 0.444501950008550E+000 0.736368377006958E+000 0.000000000000000E+000
 0.398829470438439E+000 0.687500000000000E+000 0.000000000000000E+000
 0.513688817046671E+000 0.757625009132424E+000 0.000000000000000E+000
 0.625000000000000E+000 0.500000000000000E+000 0.000000000000000E+000
 0.473588841595499E+000 0.786756047776317E+000 0.000000000000000E+000
 0.478860669310979E+000 0.411527234375853E+000 0.000000000000000E+000
 0.572911532233985E+000 0.805885984489640E+000 0.000000000000000E+000
 0.447298813474571E+000 0.682006891579307E+000 0.000000000000000E+000
 0.504019394669429E+000 0.534902916754864E+000 0.000000000000000E+000
 0.486274863958833E+000 0.352843653662708E+000 0.000000000000000E+000
 0.551332894747653E+000 0.390873360445252E+000 0.000000000000000E+000
 0.433027718644055E+000 0.375926460599989E+000 0.000000000000000E+000
 0.437992666628316E+000 0.468750000000000E+000 0.000000000000000E+000
 0.421394775819071E+000 0.423093236096220E+000 0.000000000000000E+000
 0.501785840486804E+000 0.471105361968983E+000 0.000000000000000E+000
 0.433650269193003E+000 0.539110962574808E+000 0.000000000000000E+000
 0.559767288621728E+000 0.501013305633588E+000 0.000000000000000E+000
 0.473047166828055E+000 0.607447789310414E+000 0.000000000000000E+000
 0.551301338206151E+000 0.446268697831009E+000 0.000000000000000E+000
 0.625000000000000E+000 0.625000000000000E+000 0.000000000000000E+000
[...]
CELL_DATA         2368
SCALARS tdens double 1
LOOKUP_TABLE default
 0.142288265072007E-002
 0.193281804094745E-002
 0.895344430802933E-003
 0.145751572475020E-002
 0.436651772219393E-003
 0.506452853642700E-003
 0.471300482394173E-003
 0.470063078763381E-003
 0.202693582586767E-001
 0.432919670855675E-001
 0.230594993386509E-001
 0.221946513159075E-001
 0.305321067829300E-001
 0.397285021895776E-001
 0.234007382077702E-001
 0.258923689714563E-001
 0.482121410783063E-001
 0.210098574739293E-001
 0.355192073033312E-001
 0.358548319536441E-001
 0.179337664594842E-003
 0.170286319908381E-003
 0.171903772549359E-003
 0.173948154443904E-003
 0.405688510545690E-003
 0.647190148781251E-003
 0.476624805137282E-003
 0.449971047267302E-003
 0.102993164089080E-001
 0.108199933662677E-001
 0.158724378398748E-001
 0.116702690926551E-001
 0.126647296836626E-001
 0.189798662924021E-001
 0.110276559303295E-001
 0.126526942093107E-001
 0.471861848225923E-003
 0.442151091843927E-003
 0.485613144705639E-003
 0.464210095394124E-003
 0.504126927484502E-003
 0.545787037993377E-003
 0.576043914429784E-003
 0.538686199488184E-003
 0.194600398522028E-002
 0.163141848181718E-002
 0.123531185410673E-002
 0.152868130589513E-002
 0.750621260896046E-001
 0.319827403014102E-001
 0.314568764662922E-001
 0.412487176887223E-001
 0.350392306216446E-002
 0.315406357860522E-002
 0.500979670070755E-002
 0.349910907313765E-002
 0.167954936139424E-003
 0.164464474977217E-003
 0.168248332982997E-003
 0.166093893705046E-003
 0.605636105324151E-003
 0.712785813340937E-003
 0.625751156184242E-003
 0.652789287652177E-003
 0.890702215275849E-003
 0.734097095660119E-003
 0.932340580976656E-003
 0.840329264091622E-003
 0.216307193591705E-003
 0.228337291931967E-003
 0.221856272844710E-003
 0.220300982113554E-003
 0.220542575886051E-003
 0.245432552548065E-003
 0.213108065050685E-003
 0.218819253495963E-003
 0.151487075038731E-001
 0.132250173240367E-001
 0.108972762280706E-001
 0.133443668247852E-001
 0.781455385506272E-002
 0.201332153512508E-001
 0.751127563659154E-002
 0.839781780495064E-002
 0.414305183317134E-003
 0.323037177393712E-003
 0.337440752916700E-003
 0.346352509644530E-003
 0.308129082854044E-001
 0.363569487616198E-001
 0.125543469997773E-001
 0.131529656138806E-001
 0.214240787979091E-003
 0.215142734346699E-003
 0.227250624029423E-003
 0.218746182686460E-003
 0.800296201562296E-001
 0.198002447564467E+000
 0.266155294770452E+000
 0.150439618998565E+000
 0.229976586499155E-001
 0.265487842419315E-001
 0.411993068744695E-001
 0.232256671153002E-001
 0.231530629429692E-003
 0.218935877986038E-003
 0.233053144046407E-003
 0.225778009556301E-003
 0.228596446448747E-003
 0.226551211765103E-003
 0.247625857957232E-003
 0.233740995213215E-003
 0.273213179860032E-003
 0.284576505771743E-003
 0.261218955485268E-003
 0.272643645589328E-003
 0.209326442310462E-002
 0.256171874789425E-002
 0.395091762922470E-002
 0.279252342837039E-002
 0.761850291000727E-002
 0.493115777003329E-002
 0.790011092158770E-002
 0.720310545124799E-002
 0.469753806785940E-003
 0.314267403236104E-003
 0.349052329253886E-003
 0.357458211374780E-003
 0.267274088652866E-003
 0.268045651836153E-003
 0.266224563281489E-003
 0.267396327431368E-003
 0.286648109038410E-001
 0.237179349842259E-001
 0.228099028272933E-001
 0.235439150352362E-001
 0.309548488179064E-003
 0.280633080105245E-003
 0.306288442151742E-003
 0.299204811613913E-003
 0.343274043977227E-003
 0.315522503440694E-003
 0.503596741344042E-003
 0.362044387987658E-003
 0.272140772811821E-003
 0.273827495956387E-003
 0.282674364991844E-003
 0.275363574337991E-003
 0.271457675930545E-003
 0.269571639383770E-003
 0.267943575780509E-003
 0.269811717089220E-003
 0.257559246296889E-003
 0.217862877136936E-003
 0.259441432600270E-003
 0.236576896790244E-003
 0.630926966757114E-002
 0.226920417238984E-002
 0.110128139000012E-002
 0.254699776662752E-002
 0.149679204406564E-001
 0.380355422790896E-002
 0.191376130783498E-001
 0.621653723085791E-002
 0.219392356471616E-001
 0.437726101503937E-001
 0.804280825667461E-001
 0.820139645052332E-001
 0.273333232654937E-002
 0.805512007388090E-003
 0.276826451197709E-003
 0.941903174604396E-003
 0.134249650066400E+000
 0.592992345801426E-001
 0.903650048002822E-001
 0.543607953301216E-001
 0.427722710254797E-001
 0.324631911014773E-001
 0.531660559103063E-001
 0.537194047853931E-001
 0.927022720798360E-003
 0.987781070891362E-003
 0.814276051954675E-002
 0.452600283913914E-002
 0.289537909857291E-003
 0.276897019643396E-003
 0.268066233761806E-003
 0.276211035344925E-003
 0.262525873646880E-002
 0.178562825576783E-002
 0.214306185844186E-002
 0.221050316962060E-002
 0.264796269525069E-003
 0.266697355397950E-003
 0.261712288852233E-003
 0.263350079888283E-003
 0.279038742496676E-003
 0.273726182292571E-003
 0.265460053661697E-003
 0.268955237421133E-003
 0.104586811255592E-002
 0.948150206095606E-003
 0.569773451888403E-002
 0.349757960997895E-002
 0.106449651097240E-002
 0.834848766938829E-003
 0.569332450646661E-002
 0.909792962507022E-003
 0.530064459699558E-002
 0.188150781289732E-001
 0.328834622068106E-002
 0.116382956030635E-001
 0.150509801004914E-001
 0.115647229346307E-001
 0.177541424580706E-001
 0.121083116114530E-001
 0.100270122367207E-001
 0.337007616069457E-002
 0.265169301972868E-002
 0.352525680076594E-002
 0.129031323854555E-001
 0.313534318517779E-002
 0.534145752889171E-002
 0.800896690999609E-002
 0.142603795991323E+000
 0.594371628420698E-001
 0.185602794330438E+000
 0.200316831849614E+000
 0.266458947301002E-003
 0.254368243716246E-003
 0.257865885725129E-003
 0.260737345347367E-003
 0.663335068529518E-001
 0.649653412074570E-001
 0.239934213167510E+000
 0.585283512486373E-001
 0.830888120161395E-003
 0.102488598088145E-002
 0.472248747858492E-003
 0.707506272193953E-003
 0.568037055081432E-003
 0.533515028229705E-003
 0.622868654299296E-003
 0.567549180097702E-003
 0.118719916258318E-002
 0.141515334822658E-002
 0.182673281779347E-002
 0.147445553067537E-002
 0.383527177071049E-001
 0.437157009022938E-001
 0.222198407248798E-001
 0.398887869835637E-001
 0.115601689966228E-002
 0.108474344947052E-002
 0.142625974724570E-002
 0.118184596975100E-002
 0.235078792294144E-001
 0.490909022058237E-001
 0.440200146699641E-001
 0.416876841982769E-001
 0.265847451395531E-001
 0.324163268717976E-001
 0.189407265696617E-001
 0.282003947716160E-001
 0.879217074587153E-002
 0.180467274250917E-001
 0.760696953028158E-002
 0.943926427097498E-002
 0.709585999670991E-002
 0.124646658192167E-001
 0.838613575479208E-002
 0.893235940711595E-002
 0.327198492140680E-002
 0.107068696909955E-001
 0.940364726143522E-002
 0.961097686025893E-002
 0.888059309783380E-003
 0.116564004939475E-002
 0.146677489042835E-002
 0.108060475033482E-002
 0.300372346135968E-003
 0.282088269635878E-003
 0.315218105101785E-003
 0.294147238339363E-003
 0.248667495078448E-001
 0.110527126244738E-001
 0.810807266836661E-002
 0.826346871743958E-002
 0.206315768586516E-001
 0.169805024261916E-001
 0.232733008441677E-001
 0.212064734173123E-001
 0.154334147566322E-001
 0.165513326760237E-001
 0.151437458802520E-001
 0.184622811959964E-001
 0.476284474326671E-002
 0.173174972709079E-002
 0.216270459791082E-002
 0.241370352845611E-002
 0.806684977177529E-002
 0.528744459930055E-002
 0.202973513263440E-001
 0.698076804663955E-002
 0.118597801356458E+000
 0.179483369349193E+000
 0.453265708199206E+000
 0.209324593081126E+000
 0.817816837588815E-002
 0.172047518859901E-001
 0.206439860774832E-001
 0.194778959519447E-001
 0.187846777254683E-001
 0.431678252630909E-001
 0.303272510700646E-001
 0.292361230289723E-001
 0.760854727637433E-002
 0.943826019936632E-003
 0.531580167729059E-002
 0.484196007018687E-002
 0.366319467676574E-003
 0.302888029066576E-003
 0.461977097318881E-003
 0.360570137289545E-003
 0.273130794037201E-003
 0.257438976820642E-003
 0.290806121614033E-003
 0.271975317406791E-003
 0.773751851522071E-001
 0.668565328863344E-001
 0.932460073083868E-001
 0.804338566931377E-001
 0.156088885598616E-001
 0.852331314444700E-002
 0.175536460049219E-001
 0.173358229782569E-001
 0.939870415939833E-002
 0.105326616801325E-001
 0.142314240308281E-001
 0.104110780243090E-001
 0.308493693678142E-002
 0.812542724372843E-002
 0.125965300784884E-001
 0.897930077153538E-002
 0.965900420849865E-002
 0.345360889744797E-002
 0.223403548528818E-002
 0.413171440772173E-002
 0.217355180938903E-002
 0.222528094568181E-002
 0.753309178875589E-002
 0.245581458457418E-002
 0.143127339116996E-001
 0.434995808238085E-002
 0.168505925240276E-001
 0.197272424028822E-001
 0.988045350355780E-002
 0.163594700480934E-001
 0.194836759934208E-001
 0.228107587321183E-001
 0.475242804411184E-003
 0.886690117719851E-003
 0.138019734356040E-002
 0.816319400090940E-003
 0.628058154832484E-001
 0.619359919864516E-001
 0.707436350450521E-001
 0.702024842138940E-001
 0.341395334889671E-002
 0.651409316069728E-002
 0.528424968304540E-002
 0.488924058251959E-002
 0.181714933328930E-001
 0.221857851314162E-001
 0.316966669156200E-001
 0.244454247164433E-001
 0.508534339049331E-002
 0.127859504990786E+000
 0.177442841291883E-001
 0.514579249919386E-002
 0.115893470199025E-002
 0.808395805914215E-003
 0.928476137147255E-003
 0.959829258222344E-003
 0.688761086598870E-002
 0.547868978558039E-002
 0.576115666442992E-002
 0.531738707322299E-002
 0.284256985159512E-001
 0.411345859643315E-001
 0.407406825787202E-001
 0.346972410851106E-001
 0.723907527026637E-001
 0.116213284514384E+000
 0.648483729679545E+000
 0.114886063590439E+000
 0.150020778012031E-001
 0.685821503672074E-002
 0.381175349388027E-002
 0.566411583234799E-002
 0.139231945990471E-002
 0.123995266341634E-002
 0.456570411409111E-003
 0.790113625231468E-003
 0.105876857583331E+000
 0.816693118426788E-001
 0.270818721655084E-001
 0.620351388118782E-001
 0.246880861385708E-003
 0.260780768131830E-003
 0.263299787471669E-003
 0.255282005399685E-003
 0.277569292701962E-003
 0.302239700861269E-003
 0.269272896549857E-003
 0.281628167911871E-003
 0.788363264645712E-002
 0.180479514074254E-001
 0.196691371770664E-001
 0.196220562827346E-001
 0.280861521747309E-003
 0.273981259855357E-003
 0.272522984008239E-003
 0.275692599920818E-003
 0.702648318797116E-002
 0.111566404815253E-001
 0.696504766177409E-002
 0.866346025847704E-002
 0.112034509002658E-001
 0.163094675750595E-001
 0.170416140090176E-001
 0.168284870237672E-001
 0.369284099662607E-001
 0.301613954652772E-001
 0.213219333881501E-001
 0.340253482157465E-001
 0.486629609121117E-003
 0.842767646897120E-003
 0.343720607404709E-002
 0.222343355042273E-002
 0.257442936063897E-002
 0.447952073761318E-002
 0.392285708914102E-002
 0.363097460641162E-002
 0.703843273468090E-002
 0.424614753458699E-002
 0.651985300629002E-002
 0.599869545453393E-002
 0.370038029784353E-002
 0.500743775030802E-002
 0.626918913957212E-002
 0.506538000175396E-002
 0.120050773411493E-001
 0.164796442887296E-001
 0.183135926973927E-001
 0.150901001700046E-001
 0.144254926462661E-002
 0.144939444084042E-002
 0.181457479103141E-002
 0.150506608719695E-002
 0.105139768111111E-002
 0.103069574083094E-002
 0.139998286775199E-002
 0.110785859291201E-002
 0.212772152243406E-001
 0.849721679264079E-002
 0.452977374888941E-002
 0.635131948962929E-002
 0.308157936006671E-001
 0.128004945415950E-001
 0.151576321452323E-001
 0.157990909710084E-001
 0.381755210616893E-002
 0.842069283028986E-002
 0.725999788070665E-002
 0.638707977191037E-002
 0.103521257722182E-001
 0.209772656224722E-001
 0.179449560540935E-001
 0.217129318945399E-001
 0.669060938563122E-001
 0.649426748799246E-001
 0.434025667426411E-001
 0.463746947180635E-001
 0.986849731550949E-001
 0.110289079660170E+000
 0.670780811969104E-001
 0.888152232792269E-001
 0.815223740704856E-002
 0.104300296759730E-001
 0.181079860054874E-001
 0.106589745796492E-001
 0.244353454880638E-001
 0.130660703056183E-001
 0.321572470749258E-001
 0.248949981318890E-001
 0.692494544630982E-003
 0.661986512386691E-003
 0.799637162664661E-003
 0.706666283893885E-003
 0.106071187887220E-002
 0.133922818155092E-002
 0.100098323867349E-002
 0.110990418456041E-002
 0.360772604687189E-001
 0.691723219474374E-001
 0.840537900403373E-002
 0.408198669320268E-001
 0.780937305822935E-003
 0.117334425563427E-002
 0.782097597195809E-003
 0.875984238474141E-003
 0.129071641816029E-001
 0.113929812453314E-002
 0.134776352635810E-002
 0.539334598335113E-002
 0.265706664393171E-003
 0.210775340338381E-003
 0.323398562478689E-003
 0.250161159915451E-003
 0.742923231927652E-003
 0.872113819805254E-003
 0.752382671635001E-003
 0.781301708696234E-003
 0.120593613344160E-002
 0.103169756885631E-002
 0.929187794818973E-003
 0.103154898582429E-002
 0.427507604651128E-002
 0.231682600814634E-002
 0.434665388554589E-002
 0.360847969718339E-002
 0.234724942373405E-002
 0.103694252644042E-002
 0.826502696886297E-003
 0.105262839111531E-002
 0.328042321789553E-002
 0.212446152759495E-002
 0.402009919108141E-002
 0.283358132896697E-002
 0.350462922957694E-002
 0.188157517903529E-002
 0.192930023129397E-002
 0.216104524204612E-002
 0.305684874088357E-003
 0.305815109039527E-003
 0.363205334665980E-003
 0.318126675491071E-003
 0.414744037211415E-002
 0.259573683524417E-002
 0.364504358503168E-002
 0.363255949739752E-002
 0.144074994038380E-002
 0.139892185271976E-002
 0.105640078294576E-002
 0.128487807979134E-002
 0.634897124094885E-003
 0.831132391608423E-003
 0.785116925655286E-003
 0.744405099915101E-003
 0.101493994591027E-001
 0.686513359127715E-002
 0.904139812955714E-002
 0.907666828117410E-002
 0.694524034234294E-003
 0.890661773898611E-003
 0.851696408218180E-003
 0.805204635880727E-003
 0.618682390776772E-002
 0.396498184232499E-002
 0.554916254491445E-002
 0.561417164050772E-002
 0.823077610057061E-003
 0.730621638587871E-003
 0.702300174408749E-003
 0.750963753698189E-003
 0.116656943811382E-001
 0.991841578623983E-002
 0.125359992927794E-001
 0.124592439369095E-001
 0.178097717604959E-002
 0.240447004020058E-002
 0.154632692553308E-002
 0.181320212705048E-002
 0.130523597028756E-001
 0.748936370547046E-002
 0.121259214400595E-001
 0.121990046476141E-001
 0.202369062850274E-001
 0.208644868755297E-001
 0.270336607416322E-001
 0.219901251643691E-001
 0.671081438688545E-002
 0.999250364589660E-002
 0.850372852509293E-002
 0.867593823161314E-002
 0.221476681239105E-002
 0.367974562333915E-002
 0.157976433080948E-002
 0.207494241426795E-002
 0.142187839188259E-001
 0.147446853905368E-001
 0.158877053406850E-001
 0.149293101846168E-001
 0.238328726118236E-002
 0.202365852070511E-002
 0.158444304373813E-002
 0.200965449485919E-002
 0.506326253864932E-002
 0.737424929227132E-002
 0.802441953337866E-002
 0.715350411372113E-002
 0.317775332216334E-003
 0.385380755711600E-003
 0.520196830944349E-003
 0.394822810994446E-003
 0.943319554600218E-003
 0.100170136727632E-002
 0.114222245127743E-002
 0.104706752132811E-002
 0.209992611799238E-003
 0.192136320336636E-003
 0.207035454254829E-003
 0.203038448007493E-003
 0.658124836120220E-002
 0.440135516792548E-002
 0.404174757460065E-002
 0.457018851652540E-002
 0.562677599303887E-003
 0.352519870906376E-003
 0.412467903858809E-003
 0.430885223289896E-003
 0.481043482919874E-002
 0.386740547904406E-002
 0.656460876685887E-002
 0.446564593370441E-002
 0.104281366716569E-002
 0.111713252413201E-002
 0.132725725434987E-002
 0.114495810032381E-002
 0.200702885251307E-003
 0.209204846503719E-003
 0.243227051326908E-003
 0.218116221367529E-003
 0.339922996785777E-002
 0.396820646600769E-002
 0.745613465524458E-002
 0.443518524061979E-002
 0.307671995274530E-002
 0.346593319465761E-002
 0.246018581075479E-002
 0.288602250237156E-002
 0.708104586623005E-002
 0.790442856973947E-002
 0.523011682388659E-002
 0.778634973513110E-002
 0.128989798203667E-002
 0.116973451003552E-002
 0.125678549195047E-002
 0.121544599594193E-002
 0.529724072060542E-003
 0.579620771163815E-003
 0.631846103203783E-003
 0.580460491392318E-003
 0.304543711562915E-002
 0.735923246654047E-003
 0.975778635678000E-003
 0.102540533239309E-002
 0.994697263079488E-003
 0.116227766863903E-002
 0.110445285141737E-002
 0.106931774110030E-002
 0.296647158061719E-002
 0.473358807836527E-002
 0.565352535153625E-002
 0.439934383103524E-002
 0.401375031705765E-003
 0.485398339970293E-003
 0.414164903999789E-003
 0.435180049097772E-003
 0.125691640719180E-002
 0.118165113007908E-002
 0.127632390746286E-002
 0.124051664906461E-002
 0.765933549642907E-003
 0.909147972837430E-003
 0.888703193915847E-003
 0.833674695312000E-003
 0.111349278150770E-002
 0.167400981845518E-002
 0.153674350716164E-002
 0.147483654655882E-002
 0.342151414073733E-002
 0.281624189674159E-002
 0.525507674618972E-002
 0.362014187688734E-002
 0.123719471187603E-002
 0.166394387026322E-002
 0.105912365065143E-002
 0.125763289799176E-002
 0.111183681295952E-002
 0.144626246469573E-002
 0.131235609686126E-002
 0.127419170972068E-002
 0.225497621890199E-002
 0.270260742264439E-002
 0.194163718813194E-002
 0.222593753035187E-002
 0.304424227430209E-002
 0.932977567515480E-002
 0.526229233098730E-002
 0.621412364690130E-002
 0.187280879137725E-001
 0.192833066379000E-001
 0.851863675427902E-002
 0.183892518991558E-001
 0.804287418107481E-003
 0.872227741128963E-003
 0.684089823563314E-003
 0.791006350332326E-003
 0.130789328283367E-002
 0.107463938137854E-002
 0.137569523100846E-002
 0.125534036417117E-002
 0.598738891514472E-003
 0.735738340551604E-003
 0.633491980634433E-003
 0.645902629471166E-003
 0.983031237913732E-003
 0.117979619746127E-002
 0.915411958052951E-003
 0.101455132732390E-002
 0.360029758542204E-003
 0.392940743033007E-003
 0.389115856329969E-003
 0.375620615381385E-003
 0.494948791076055E-003
 0.491516125967463E-003
 0.556349272110291E-003
 0.514701356210791E-003
 0.595573788093424E+000
 0.459811691162181E+000
 0.454295480918174E-001
 0.563556577796143E+000
 0.161605638849703E-001
 0.519499156973480E-001
 0.487233594423561E-001
 0.496440652062189E-001
 0.237813210524783E-002
 0.172748451292407E-002
 0.272143487497264E-002
 0.222626911298093E-002
 0.254505429189796E-002
 0.163490162086918E-002
 0.171570811432556E-002
 0.183051772838363E-002
 0.173994988077534E-002
 0.156547224736591E-002
 0.212077246610834E-002
 0.172801349800232E-002
 0.201813792564140E-001
 0.189366008645823E-001
 0.135955413133851E-001
 0.164531638305010E-001
 0.610522166017450E-002
 0.168084524566329E-002
 0.161062040999548E-002
 0.183326566137563E-002
 0.391478012284065E-003
 0.379587759802550E-003
 0.329487190919989E-003
 0.363866909446999E-003
 0.131856852796926E-001
 0.356722301409062E-001
 0.159986807546782E-001
 0.243585205764437E-001
 0.272218369047928E-003
 0.287703511471268E-003
 0.214608796144825E-003
 0.244894863730202E-003
 0.384660746621547E-003
 0.668539841931607E-003
 0.745451104231446E-003
 0.568327858184965E-003
 0.473486097476101E-003
 0.620861080187333E-003
 0.656317526680935E-003
 0.574640625984645E-003
 0.696104259735585E-002
 0.136615210052587E-002
 0.432891457638278E-002
 0.484327337160089E-002
 0.184659482474712E-003
 0.172157641549395E-003
 0.191449038088424E-003
 0.180167284411103E-003
 0.267008551340191E-003
 0.217610012058347E-003
 0.201226778899619E-003
 0.227807324237335E-003
 0.457332163477750E-003
 0.544359526675741E-003
 0.566255399459424E-003
 0.515918534585674E-003
 0.226931455143650E-003
 0.273307011104112E-003
 0.265385700676905E-003
 0.250409588329042E-003
 0.383629136039624E-003
 0.332175652299130E-003
 0.684881548821138E-003
 0.421895620591222E-003
 0.454902764662755E-003
 0.495926741330092E-003
 0.524753690167334E-003
 0.487503317903601E-003
 0.168084536964177E-003
 0.169549936637929E-003
 0.175867504723336E-003
 0.170324353626400E-003
 0.598092138095170E-003
 0.531899761064979E-003
 0.553444740091480E-003
 0.564054780608376E-003
 0.546253296205473E-003
 0.163541758170614E-002
 0.376943706622590E-002
 0.137067445299146E-002
 0.477922322532192E-003
 0.972068936389468E-003