# vtk DataFile Version 3.0
Unstructured Grid
ASCII
DATASET UNSTRUCTURED_GRID
FIELD FieldData 1
TIME 1 1 float
  0.150000E+01
POINTS         1241 double
 0.000000000000000E+000 0.000000000000000E+000 0.000000000000000E+000
 0.100000000000000E+001 0.000000000000000E+000 0.000000000000000E+000
 0.100000000000000E+001 0.100000000000000E+001 0.000000000000000E+000
 0.000000000000000E+000 0.100000000000000E+001 0.000000000000000E+000
 0.125000000000000E+000 0.250000000000000E+000 0.000000000000000E+000
 0.375000000000000E+000 0.250000000000000E+000 0.000000000000000E+000
 0.375000000000000E+000 0.750000000000000E+000 0.000000000000000E+000
 0.125000000000000E+000 0.750000000000000E+000 0.000000000000000E+000
 0.625000000000000E+000 0.250000000000000E+000 0.000000000000000E+000
 0.875000000000000E+000 0.250000000000000E+000 0.000000000000000E+000
 0.875000000000000E+000 0.750000000000000E+000 0.000000000000000E+000
 0.625000000000000E+000 0.750000000000000E+000 0.000000000000000E+000
 0.100000000000000E+001 0.500000000000000E+000 0.000000000000000E+000
 0.000000000000000E+000 0.500000000000000E+000 0.000000000000000E+000
 0.500000000000000E+000 0.000000000000000E+000 0.000000000000000E+000
 0.125000000000000E+000 0.500000000000000E+000 0.000000000000000E+000
 0.000000000000000E+000 0.750000000000000E+000 0.000000000000000E+000
 0.000000000000000E+000 0.250000000000000E+000 0.000000000000000E+000
 0.000000000000000E+000 0.875000000000000E+000 0.000000000000000E+000
 0.308529810216860E+000 0.500255759132561E+000 0.000000000000000E+000
 0.250000000000000E+000 0.000000000000000E+000 0.000000000000000E+000
 0.125000000000000E+000 0.375000000000000E+000 0.000000000000000E+000
 0.125000000000000E+000 0.625000000000000E+000 0.000000000000000E+000
 0.000000000000000E+000 0.375000000000000E+000 0.000000000000000E+000
 0.000000000000000E+000 0.437500000000000E+000 0.000000000000000E+000
 0.625000000000000E-001 0.406250000000000E+000 0.000000000000000E+000
 0.125000000000000E+000 0.437500000000000E+000 0.000000000000000E+000
 0.216796875000000E+000 0.382812500000000E+000 0.000000000000000E+000
 0.183593750000000E+000 0.468750000000000E+000 0.000000000000000E+000
 0.375000000000000E+000 0.500000000000000E+000 0.000000000000000E+000
 0.250000000000000E+000 0.468750000000000E+000 0.000000000000000E+000
 0.625000000000000E-001 0.481770833333333E+000 0.000000000000000E+000
 0.184176834650379E+000 0.540399924344460E+000 0.000000000000000E+000
 0.216796875000000E+000 0.432195490056818E+000 0.000000000000000E+000
 0.168571309840426E+000 0.406250000000000E+000 0.000000000000000E+000
 0.125000000000000E+000 0.687500000000000E+000 0.000000000000000E+000
 0.255828208111702E+000 0.540763692652926E+000 0.000000000000000E+000
 0.375000000000000E+000 0.375000000000000E+000 0.000000000000000E+000
 0.375000000000000E+000 0.625000000000000E+000 0.000000000000000E+000
 0.220170948184400E+000 0.507406813570504E+000 0.000000000000000E+000
 0.219557967718869E+000 0.628145457476636E+000 0.000000000000000E+000
 0.125000000000000E+000 0.562500000000000E+000 0.000000000000000E+000
 0.000000000000000E+000 0.625000000000000E+000 0.000000000000000E+000
 0.375000000000000E+000 0.437500000000000E+000 0.000000000000000E+000
 0.280323303380492E+000 0.407503995028409E+000 0.000000000000000E+000
 0.375000000000000E+000 0.562500000000000E+000 0.000000000000000E+000
 0.219817452482738E+000 0.577034793653623E+000 0.000000000000000E+000
 0.885901781235304E-001 0.531250000000000E+000 0.000000000000000E+000
 0.312500000000000E+000 0.250000000000000E+000 0.000000000000000E+000
 0.297268942273640E+000 0.626076494243052E+000 0.000000000000000E+000
 0.168732375746058E+000 0.593750000000000E+000 0.000000000000000E+000
 0.173890458776596E+000 0.343750000000000E+000 0.000000000000000E+000
 0.183963193611824E+000 0.278873942859495E+000 0.000000000000000E+000
 0.250000000000000E+000 0.250000000000000E+000 0.000000000000000E+000
 0.237162500098357E+000 0.317347265649589E+000 0.000000000000000E+000
 0.250000000000000E+000 0.750000000000000E+000 0.000000000000000E+000
 0.292902283271084E+000 0.575476271929907E+000 0.000000000000000E+000
 0.125000000000000E+000 0.312500000000000E+000 0.000000000000000E+000
 0.585937500000000E-001 0.335937500000000E+000 0.000000000000000E+000
 0.000000000000000E+000 0.312500000000000E+000 0.000000000000000E+000
 0.336992576921227E+000 0.687500000000000E+000 0.000000000000000E+000
 0.312500000000000E+000 0.750000000000000E+000 0.000000000000000E+000
 0.270599706447422E+000 0.686880677247748E+000 0.000000000000000E+000
 0.500000000000000E+000 0.100000000000000E+001 0.000000000000000E+000
 0.250000000000000E+000 0.100000000000000E+001 0.000000000000000E+000
 0.375000000000000E+000 0.100000000000000E+001 0.000000000000000E+000
 0.281250000000000E+000 0.830729166666667E+000 0.000000000000000E+000
 0.343750000000000E+000 0.312500000000000E+000 0.000000000000000E+000
 0.318389033445014E+000 0.364242983277493E+000 0.000000000000000E+000
 0.267787317245899E+000 0.358095790057897E+000 0.000000000000000E+000
 0.289796410792034E+000 0.300414294603983E+000 0.000000000000000E+000
 0.274503756719177E+000 0.737152390322435E-001 0.000000000000000E+000
 0.343750000000000E+000 0.183159722222222E+000 0.000000000000000E+000
 0.246744791666667E+000 0.146267361111111E+000 0.000000000000000E+000
 0.485980902777778E+000 0.146267361111111E+000 0.000000000000000E+000
 0.302262721771688E+000 0.146267361111111E+000 0.000000000000000E+000
 0.274503756719177E+000 0.197313658770435E+000 0.000000000000000E+000
 0.375000000000000E+000 0.000000000000000E+000 0.000000000000000E+000
 0.420862160086615E+000 0.187832617434252E+000 0.000000000000000E+000
 0.384683294119816E+000 0.146267361111111E+000 0.000000000000000E+000
 0.330565923051619E+000 0.413335216176427E+000 0.000000000000000E+000
 0.352621063931298E+000 0.818811625318066E+000 0.000000000000000E+000
 0.312179705605879E+000 0.796288985503351E+000 0.000000000000000E+000
 0.500000000000000E+000 0.828697389616904E+000 0.000000000000000E+000
 0.427559261986282E+000 0.805138192500353E+000 0.000000000000000E+000
 0.399035374849065E+000 0.860999763838749E+000 0.000000000000000E+000
 0.312500000000000E+000 0.000000000000000E+000 0.000000000000000E+000
 0.187500000000000E+000 0.820606518817204E+000 0.000000000000000E+000
 0.466707069430364E+000 0.898575881689250E+000 0.000000000000000E+000
 0.511172798160702E+000 0.257526753061783E+000 0.000000000000000E+000
 0.453250172578119E+000 0.849294180402265E+000 0.000000000000000E+000
 0.937500000000000E-001 0.504496261452806E-001 0.000000000000000E+000
 0.403162177800535E+000 0.933291523780214E+000 0.000000000000000E+000
 0.437500000000000E+000 0.100000000000000E+001 0.000000000000000E+000
 0.312500000000000E+000 0.934315683855312E+000 0.000000000000000E+000
 0.453353205989905E+000 0.949647808263675E+000 0.000000000000000E+000
 0.358054120979715E+000 0.953547171775243E+000 0.000000000000000E+000
 0.325154404090345E+000 0.873991089312954E+000 0.000000000000000E+000
 0.367644435624882E+000 0.899055397729593E+000 0.000000000000000E+000
 0.236990017361111E+000 0.801449092741935E+000 0.000000000000000E+000
 0.443167922913219E+000 0.252288460541578E+000 0.000000000000000E+000
 0.477263196714215E+000 0.204401840413902E+000 0.000000000000000E+000
 0.562394794036017E+000 0.187447086349591E+000 0.000000000000000E+000
 0.625000000000000E+000 0.375000000000000E+000 0.000000000000000E+000
 0.407024191230044E+000 0.312500000000000E+000 0.000000000000000E+000
 0.474084945258901E+000 0.294963270028168E+000 0.000000000000000E+000
 0.216342369774119E+000 0.930487241414522E-001 0.000000000000000E+000
 0.157072243143605E+000 0.162201579117130E+000 0.000000000000000E+000
 0.187500000000000E+000 0.000000000000000E+000 0.000000000000000E+000
 0.174352819470591E+000 0.117036261141583E+000 0.000000000000000E+000
 0.125000000000000E+000 0.000000000000000E+000 0.000000000000000E+000
 0.218750000000000E+000 0.413079239859885E-001 0.000000000000000E+000
 0.131982343008202E+000 0.962324019836500E-001 0.000000000000000E+000
 0.866442243142230E-001 0.109366815743071E+000 0.000000000000000E+000
 0.000000000000000E+000 0.125000000000000E+000 0.000000000000000E+000
 0.156250000000000E+000 0.557461246091935E-001 0.000000000000000E+000
 0.343473007945752E+000 0.889135573360382E-001 0.000000000000000E+000
 0.316206161479800E+000 0.485604570335434E-001 0.000000000000000E+000
 0.430629647389619E+000 0.697713778434944E-001 0.000000000000000E+000
 0.391175490408355E+000 0.981202752650288E-001 0.000000000000000E+000
 0.444501950008550E+000 0.736368377006958E+000 0.000000000000000E+000
 0.398829470438439E+000 0.687500000000000E+000 0.000000000000000E+000
 0.513688817046671E+000 0.757625009132424E+000 0.000000000000000E+000
 0.625000000000000E+000 0.500000000000000E+000 0.000000000000000E+000
 0.473588841595499E+000 0.786756047776317E+000 0.000000000000000E+000
 0.478860669310979E+000 0.411527234375853E+000 0.000000000000000E+000
 0.572911532233985E+000 0.805885984489640E+000 0.000000000000000E+000
 0.447298813474571E+000 0.682006891579307E+000 0.000000000000000E+000
 0.504019394669429E+000 0.534902916754864E+000 0.000000000000000E+000
 0.486274863958833E+000 0.352843653662708E+000 0.000000000000000E+000
 0.551332894747653E+000 0.390873360445252E+000 0.000000000000000E+000
 0.433027718644055E+000 0.375926460599989E+000 0.000000000000000E+000
 0.437992666628316E+000 0.468750000000000E+000 0.000000000000000E+000
 0.421394775819071E+000 0.423093236096220E+000 0.000000000000000E+000
 0.501785840486804E+000 0.471105361968983E+000 0.000000000000000E+000
 0.433650269193003E+000 0.539110962574808E+000 0.000000000000000E+000
 0.559767288621728E+000 0.501013305633588E+000 0.000000000000000E+000
 0.473047166828055E+000 0.607447789310414E+000 0.000000000000000E+000
 0.551301338206151E+000 0.446268697831009E+000 0.000000000000000E+000
 0.625000000000000E+000 0.625000000000000E+000 0.000000000000000E+000
[...]
CELL_DATA         2368
SCALARS tdens double 1
LOOKUP_TABLE default
 0.400570335892623E+001
 0.400614707187794E+001
 0.400488862655979E+001
 0.400538013430562E+001
 0.400323471240838E+001
 0.400357687486154E+001
 0.400347739616207E+001
 0.400346301946981E+001
 0.400676137078080E+001
 0.400899073190409E+001
 0.400893302639706E+001
 0.400827760520053E+001
 0.400721229744032E+001
 0.400712818981036E+001
 0.400771394824053E+001
 0.400743473587387E+001
 0.400795932852937E+001
 0.400775735909476E+001
 0.400809703240536E+001
 0.400789475397797E+001
 0.400033086213276E+001
 0.400018351116623E+001
 0.400020074260391E+001
 0.400023931351494E+001
 0.400203612086053E+001
 0.400220551159073E+001
 0.400120109253456E+001
 0.400164968742264E+001
 0.400860363361852E+001
 0.400819608437037E+001
 0.400838415524666E+001
 0.400835348577163E+001
 0.401050985602283E+001
 0.401115269810542E+001
 0.401143197831349E+001
 0.401112182933895E+001
 0.400535949019528E+001
 0.400499088482890E+001
 0.400568100116183E+001
 0.400532609009081E+001
 0.400369321660015E+001
 0.400379873349392E+001
 0.400399265137382E+001
 0.400378593383281E+001
 0.400560280655482E+001
 0.400552556395188E+001
 0.400514149750437E+001
 0.400545671117934E+001
 0.400768133495448E+001
 0.401323522085312E+001
 0.400565853776880E+001
 0.400789512476423E+001
 0.400858362537998E+001
 0.400918758957497E+001
 0.400939610244882E+001
 0.400918356320808E+001
 0.400013205905669E+001
 0.400003259236527E+001
 0.400012211523502E+001
 0.400007597104153E+001
 0.400670962346060E+001
 0.400744413009785E+001
 0.400657218559116E+001
 0.400691155802791E+001
 0.401035129903289E+001
 0.400970647954407E+001
 0.401086887888263E+001
 0.401008918978707E+001
 0.400108721973264E+001
 0.400130302018219E+001
 0.400113313760331E+001
 0.400113926426853E+001
 0.400124245969774E+001
 0.400085170256451E+001
 0.400112839381142E+001
 0.400101368946151E+001
 0.400846851207124E+001
 0.400880547433808E+001
 0.400874343364963E+001
 0.400872538981282E+001
 0.400697934877928E+001
 0.400799063843142E+001
 0.400734776930560E+001
 0.400742350673961E+001
 0.400297017735254E+001
 0.400219709214270E+001
 0.400228180242626E+001
 0.400244994391279E+001
 0.400583748906769E+001
 0.400385710534210E+001
 0.400278367997467E+001
 0.400403465325677E+001
 0.400137870174829E+001
 0.400130466250574E+001
 0.400145452855025E+001
 0.400137758784987E+001
 0.400807427675665E+001
 0.400796729677846E+001
 0.400840901865326E+001
 0.400816319126905E+001
 0.400813530317102E+001
 0.400876880903764E+001
 0.400875467029577E+001
 0.400862966783015E+001
 0.400142729087384E+001
 0.400141130124762E+001
 0.400148883146679E+001
 0.400144743936305E+001
 0.400151035045538E+001
 0.400155786546823E+001
 0.400175869882825E+001
 0.400159667241816E+001
 0.400140891173096E+001
 0.400173526070165E+001
 0.400161583065597E+001
 0.400163112497788E+001
 0.400587820147842E+001
 0.400588150831198E+001
 0.400633633961165E+001
 0.400602226110813E+001
 0.400658560230828E+001
 0.400639710875577E+001
 0.400675624891385E+001
 0.400659620939470E+001
 0.400107072082393E+001
 0.400064814217790E+001
 0.400075684019410E+001
 0.400083313299989E+001
 0.400070251032098E+001
 0.400099153903958E+001
 0.400083779608709E+001
 0.400084960698220E+001
 0.400769053605728E+001
 0.400721696229332E+001
 0.400745065322519E+001
 0.400740125670035E+001
 0.400164992872880E+001
 0.400123398943295E+001
 0.400109181452090E+001
 0.400137368164034E+001
 0.400055378033468E+001
 0.400065854437251E+001
 0.400112926871487E+001
 0.400074473938929E+001
 0.400057329329229E+001
 0.400059076801779E+001
 0.400056676475832E+001
 0.400058096161483E+001
 0.400063760458646E+001
 0.400065786686654E+001
 0.400075351435422E+001
 0.400067642707883E+001
 0.400046165545120E+001
 0.400013621446674E+001
 0.400048250069051E+001
 0.400035359239548E+001
 0.400271178040342E+001
 0.400203377113135E+001
 0.400122242000532E+001
 0.400185521412004E+001
 0.400401434594079E+001
 0.400177290017518E+001
 0.400299200594059E+001
 0.400272869496471E+001
 0.400588667371847E+001
 0.400765380594172E+001
 0.400910290405681E+001
 0.400787856351380E+001
 0.400111566432261E+001
 0.400024297468021E+001
 0.400022691057013E+001
 0.400024981666006E+001
 0.400882631315711E+001
 0.400601491085270E+001
 0.400928113884498E+001
 0.400849643845514E+001
 0.400692935528297E+001
 0.400695332871785E+001
 0.400671179061880E+001
 0.400681639441230E+001
 0.400136101926106E+001
 0.400071792305110E+001
 0.400189061638285E+001
 0.400092024852455E+001
 0.400056732699893E+001
 0.400039853288342E+001
 0.400051661108188E+001
 0.400047407998192E+001
 0.400570029735044E+001
 0.400539768342775E+001
 0.400558876645723E+001
 0.400552052633862E+001
 0.400093497101694E+001
 0.400112345724625E+001
 0.400115201665818E+001
 0.400106832287008E+001
 0.400084308542776E+001
 0.400104549948968E+001
 0.400067478083712E+001
 0.400078001603855E+001
 0.400323151621649E+001
 0.400217316166864E+001
 0.400396705293301E+001
 0.400292936331345E+001
 0.400089319606058E+001
 0.400180477057093E+001
 0.400222011453709E+001
 0.400148736779932E+001
 0.400146990824876E+001
 0.400218191542178E+001
 0.400034013499105E+001
 0.400110945272700E+001
 0.400741355302820E+001
 0.400610492255376E+001
 0.400691930675007E+001
 0.400684792974087E+001
 0.400363664122287E+001
 0.400277296379806E+001
 0.400243824115922E+001
 0.400325418136567E+001
 0.400628537600269E+001
 0.400316909240493E+001
 0.400511775096737E+001
 0.400513091020761E+001
 0.400990653018111E+001
 0.400946300652152E+001
 0.400918422846794E+001
 0.400943701059848E+001
 0.400133639297287E+001
 0.400155514396604E+001
 0.400134197099104E+001
 0.400138353928150E+001
 0.400869938135474E+001
 0.400819218668708E+001
 0.400874144110557E+001
 0.400864823454093E+001
 0.400381669888586E+001
 0.400442413085655E+001
 0.400287388566881E+001
 0.400371952303674E+001
 0.400425062704475E+001
 0.400420422843485E+001
 0.400441361707957E+001
 0.400429884103075E+001
 0.400510525913076E+001
 0.400522289565942E+001
 0.400554844199807E+001
 0.400525755753580E+001
 0.400773652309480E+001
 0.400778423041117E+001
 0.400760068619428E+001
 0.400768629862169E+001
 0.400509500256242E+001
 0.400509086384835E+001
 0.400539608495207E+001
 0.400525388377088E+001
 0.400938169738341E+001
 0.400977218848329E+001
 0.400904973465977E+001
 0.400954101870705E+001
 0.400483404357679E+001
 0.400780537974221E+001
 0.400569685730439E+001
 0.400601212572532E+001
 0.400786963064884E+001
 0.400803203063173E+001
 0.400764313727012E+001
 0.400790803496457E+001
 0.400764375677183E+001
 0.400789224227564E+001
 0.400785709571768E+001
 0.400777729139031E+001
 0.400625407762572E+001
 0.400641137540008E+001
 0.400817930820097E+001
 0.400680489895775E+001
 0.400352657340848E+001
 0.400466056910331E+001
 0.400511587927169E+001
 0.400417995443565E+001
 0.400188647388493E+001
 0.400144969722977E+001
 0.400192654341901E+001
 0.400165669999113E+001
 0.400860727670476E+001
 0.400763320196218E+001
 0.400744150155988E+001
 0.400799019263033E+001
 0.400841918046890E+001
 0.400757875723597E+001
 0.400805317417813E+001
 0.400789243370342E+001
 0.400856344276295E+001
 0.400806326967639E+001
 0.400732650565012E+001
 0.400797171112834E+001
 0.400427711816896E+001
 0.400266086227070E+001
 0.400280975756856E+001
 0.400286542831174E+001
 0.400444343766585E+001
 0.400343906782702E+001
 0.400538741654241E+001
 0.400463284568424E+001
 0.400802907287389E+001
 0.400840800166991E+001
 0.400798827969036E+001
 0.400808038912726E+001
 0.400763746766635E+001
 0.400781773775076E+001
 0.400778956277529E+001
 0.400772177652902E+001
 0.400849767649494E+001
 0.400857518212746E+001
 0.400804432975675E+001
 0.400842536054227E+001
 0.400369272442312E+001
 0.400273504688790E+001
 0.400542062208047E+001
 0.400350680014285E+001
 0.400246741471222E+001
 0.400221648369270E+001
 0.400312700878015E+001
 0.400250116010983E+001
 0.400196113787947E+001
 0.400172773831348E+001
 0.400196973095604E+001
 0.400183775939055E+001
 0.400798899147121E+001
 0.400703759969034E+001
 0.400710371584093E+001
 0.400755638153248E+001
 0.400797551448085E+001
 0.400698116593386E+001
 0.400708171859352E+001
 0.400721030306279E+001
 0.400800047108409E+001
 0.400800608727712E+001
 0.400821463193977E+001
 0.400812958956676E+001
 0.400678220268509E+001
 0.400813644823073E+001
 0.400790033491911E+001
 0.400741614717404E+001
 0.400515830514410E+001
 0.400551278345667E+001
 0.400428738336067E+001
 0.400540391304102E+001
 0.400577305272925E+001
 0.400554590642558E+001
 0.400746683426516E+001
 0.400649948249220E+001
 0.400621517870643E+001
 0.400406547458341E+001
 0.400511586502831E+001
 0.400522524936264E+001
 0.400546119588588E+001
 0.400599866539523E+001
 0.400614408075138E+001
 0.400566806304990E+001
 0.400082266339852E+001
 0.400153765158411E+001
 0.400198073930549E+001
 0.400128667984367E+001
 0.400662704069276E+001
 0.400656805960215E+001
 0.400646939329764E+001
 0.400654918168186E+001
 0.400599968119813E+001
 0.400631276693853E+001
 0.400642844435718E+001
 0.400623772910383E+001
 0.400663509309385E+001
 0.400689508417101E+001
 0.400689379605097E+001
 0.400676330372759E+001
 0.400113254364808E+001
 0.400649684329181E+001
 0.400358291971502E+001
 0.400420023658982E+001
 0.400535841023528E+001
 0.400483556370078E+001
 0.400500571436245E+001
 0.400500079120776E+001
 0.400778198344248E+001
 0.400746475067002E+001
 0.400749722370213E+001
 0.400752057212585E+001
 0.400927340809871E+001
 0.400654034558909E+001
 0.400918980200884E+001
 0.400890524065526E+001
 0.400790071089033E+001
 0.400782742455054E+001
 0.400782180531291E+001
 0.400785035311048E+001
 0.400765517613885E+001
 0.400737420758121E+001
 0.400667869869201E+001
 0.400739218013312E+001
 0.400176535983061E+001
 0.400159772648439E+001
 0.400056069137639E+001
 0.400137952567353E+001
 0.400831047984623E+001
 0.400724676995059E+001
 0.400550542565077E+001
 0.400757401889409E+001
 0.400024608923101E+001
 0.400032632676953E+001
 0.400038718311910E+001
 0.400029379283628E+001
 0.400040623715635E+001
 0.400055845909799E+001
 0.400041961520951E+001
 0.400047002050703E+001
 0.400779812170341E+001
 0.400813664261043E+001
 0.400840077524402E+001
 0.400808514317418E+001
 0.400054761956305E+001
 0.400056505887837E+001
 0.400049805283535E+001
 0.400053538379798E+001
 0.400763822447390E+001
 0.400789223351544E+001
 0.400783575781491E+001
 0.400782094588496E+001
 0.400806158417011E+001
 0.400825054203313E+001
 0.400812223881491E+001
 0.400811801810430E+001
 0.400850795215926E+001
 0.400818614825396E+001
 0.400814339645025E+001
 0.400823434184517E+001
 0.400085918205451E+001
 0.400049952245957E+001
 0.400205922279863E+001
 0.400074696072164E+001
 0.400623575221978E+001
 0.400719559477724E+001
 0.400693169532282E+001
 0.400688430738217E+001
 0.400855804373299E+001
 0.400826068295159E+001
 0.400810071716565E+001
 0.400834519867386E+001
 0.401089827604110E+001
 0.401042330265164E+001
 0.401133291376184E+001
 0.401101045906782E+001
 0.400801541910152E+001
 0.400800522317076E+001
 0.400822733781725E+001
 0.400812606368045E+001
 0.400876440276026E+001
 0.400828657715679E+001
 0.400896326921073E+001
 0.400875240160644E+001
 0.400687696789420E+001
 0.400647821032213E+001
 0.400715101906879E+001
 0.400692357055066E+001
 0.400343439216574E+001
 0.400483029307810E+001
 0.400174524617228E+001
 0.400316018361498E+001
 0.400654504035342E+001
 0.400638741170624E+001
 0.400644604514290E+001
 0.400644325029069E+001
 0.400607765056969E+001
 0.400634862470482E+001
 0.400630873438375E+001
 0.400610753689179E+001
 0.400583352632946E+001
 0.400625690739896E+001
 0.400670891284800E+001
 0.400631912702300E+001
 0.400646929520857E+001
 0.400661563563999E+001
 0.400674301572666E+001
 0.400663837755050E+001
 0.400633868245602E+001
 0.400649570820745E+001
 0.400677738316201E+001
 0.400654588382698E+001
 0.400665065129027E+001
 0.400646191959227E+001
 0.400672554581987E+001
 0.400662056834374E+001
 0.400664760406593E+001
 0.400646425262650E+001
 0.400653421227628E+001
 0.400652846727252E+001
 0.400452064019888E+001
 0.400432909022232E+001
 0.400469636649927E+001
 0.400453148208156E+001
 0.400502563242755E+001
 0.400539408379241E+001
 0.400503113215877E+001
 0.400512055590649E+001
 0.400829661366416E+001
 0.400632165051794E+001
 0.400801370450060E+001
 0.400825889199619E+001
 0.400470155056197E+001
 0.400521868132455E+001
 0.400458884491210E+001
 0.400491796954070E+001
 0.400168519118584E+001
 0.400051820638698E+001
 0.400039984221601E+001
 0.400029763656182E+001
 0.400046257110166E+001
 0.400031553472687E+001
 0.400069201486169E+001
 0.400051105958091E+001
 0.400454099640571E+001
 0.400478478446266E+001
 0.400441060225864E+001
 0.400462206843339E+001
 0.400498758779648E+001
 0.400486625127161E+001
 0.400468475140018E+001
 0.400488442647166E+001
 0.400681069730721E+001
 0.400603928283410E+001
 0.400662024356285E+001
 0.400645786417508E+001
 0.400586515748192E+001
 0.400451409217532E+001
 0.400445342543969E+001
 0.400513013590254E+001
 0.400664149164514E+001
 0.400604248942106E+001
 0.400692579839101E+001
 0.400665670909996E+001
 0.400661945053982E+001
 0.400594898856760E+001
 0.400587001193571E+001
 0.400613072291155E+001
 0.400179486416696E+001
 0.400199218803643E+001
 0.400247550966701E+001
 0.400204818082851E+001
 0.400975145246340E+001
 0.400937159034524E+001
 0.400929503893713E+001
 0.400956011169589E+001
 0.400552155540848E+001
 0.400553060357162E+001
 0.400512583510270E+001
 0.400541345639288E+001
 0.400403523746112E+001
 0.400447249090974E+001
 0.400442522566176E+001
 0.400429843320727E+001
 0.400997785684190E+001
 0.400994984181283E+001
 0.400966334748697E+001
 0.400998696546774E+001
 0.400437877342666E+001
 0.400476183831127E+001
 0.400475824122234E+001
 0.400465132164570E+001
 0.400869356571555E+001
 0.400858606012529E+001
 0.400930971491788E+001
 0.400875889504471E+001
 0.400478250136951E+001
 0.400463675288219E+001
 0.400456771164866E+001
 0.400470849237627E+001
 0.400979250022642E+001
 0.400951799691513E+001
 0.400920971658621E+001
 0.400950728122689E+001
 0.400763941650137E+001
 0.400801846602792E+001
 0.400786065239790E+001
 0.400794587763049E+001
 0.400797377960377E+001
 0.400774474691642E+001
 0.400845081637713E+001
 0.400795429869389E+001
 0.400823029528400E+001
 0.400809737964775E+001
 0.400814051600483E+001
 0.400813941697807E+001
 0.401042228686513E+001
 0.401044062286234E+001
 0.401130186935558E+001
 0.401058886267543E+001
 0.400639405383578E+001
 0.400702809929800E+001
 0.400612118969249E+001
 0.400660123298698E+001
 0.400878808736635E+001
 0.400848637843446E+001
 0.400866830468466E+001
 0.400868185857349E+001
 0.400838617474827E+001
 0.400891966460726E+001
 0.400826554409156E+001
 0.400842451888843E+001
 0.400914146789751E+001
 0.400896768182258E+001
 0.400931804722056E+001
 0.400921769905092E+001
 0.400064493803849E+001
 0.400092137737721E+001
 0.400100526531493E+001
 0.400087418531539E+001
 0.400726399709719E+001
 0.400715207273600E+001
 0.400764425729889E+001
 0.400741152945012E+001
 0.400091596840037E+001
 0.400058947870500E+001
 0.400088753072764E+001
 0.400080627148981E+001
 0.400882188849731E+001
 0.400896978773546E+001
 0.400851819018258E+001
 0.400872946987306E+001
 0.400321281091084E+001
 0.400205018085094E+001
 0.400270700485304E+001
 0.400273542524880E+001
 0.401239184663503E+001
 0.401144678326754E+001
 0.401200372905951E+001
 0.401180196034628E+001
 0.400477973056681E+001
 0.400488945193847E+001
 0.400506581674490E+001
 0.400488157905851E+001
 0.400062065622787E+001
 0.400077771866785E+001
 0.400111006555691E+001
 0.400086151310092E+001
 0.400582569795678E+001
 0.400588360693677E+001
 0.400616835397504E+001
 0.400609094713084E+001
 0.400851199211498E+001
 0.400898989708468E+001
 0.400903798690097E+001
 0.400890304720196E+001
 0.401246640044141E+001
 0.401389137730466E+001
 0.401298147755667E+001
 0.401310770200155E+001
 0.400869140028493E+001
 0.400849870174371E+001
 0.400820400934256E+001
 0.400842028634442E+001
 0.400467828576611E+001
 0.400490751496163E+001
 0.400544818394628E+001
 0.400495776053068E+001
 0.400579989323537E+001
 0.400394678040741E+001
 0.400411868473252E+001
 0.400483472103215E+001
 0.400756791685453E+001
 0.400791230313371E+001
 0.400820704018202E+001
 0.400788331557432E+001
 0.400724987021163E+001
 0.400741971603722E+001
 0.400772385325683E+001
 0.400746932509010E+001
 0.400291927296195E+001
 0.400336751289528E+001
 0.400298174033498E+001
 0.400315035840090E+001
 0.400946513471434E+001
 0.400881761323160E+001
 0.400900219721087E+001
 0.400906317995182E+001
 0.400626783600739E+001
 0.400681276362633E+001
 0.400694941669908E+001
 0.400670061873962E+001
 0.400658286129704E+001
 0.400701654135127E+001
 0.400724375965749E+001
 0.400685470566406E+001
 0.400800444779834E+001
 0.400745352082550E+001
 0.400787582606403E+001
 0.400774109516253E+001
 0.400609419981035E+001
 0.400669960778221E+001
 0.400619924672792E+001
 0.400639893431220E+001
 0.400726531096029E+001
 0.400750825247921E+001
 0.400775988430394E+001
 0.400743584533561E+001
 0.400730412677385E+001
 0.400790458100497E+001
 0.400751859534098E+001
 0.400762306939805E+001
 0.400711005323429E+001
 0.400835988615479E+001
 0.400754348959285E+001
 0.400756447608928E+001
 0.400570032247991E+001
 0.400880204332373E+001
 0.400673223576592E+001
 0.400706890742270E+001
 0.400455752274161E+001
 0.400473634400233E+001
 0.400434566719121E+001
 0.400449308849275E+001
 0.400506368415399E+001
 0.400480965498883E+001
 0.400509733361752E+001
 0.400499779613935E+001
 0.400392835027322E+001
 0.400431863893371E+001
 0.400411753580619E+001
 0.400415923642455E+001
 0.400470375441022E+001
 0.400496475631510E+001
 0.400466058639927E+001
 0.400476304258953E+001
 0.400278203516809E+001
 0.400299672721431E+001
 0.400301878252733E+001
 0.400289110555536E+001
 0.400376442127177E+001
 0.400366073117143E+001
 0.400395166776726E+001
 0.400382186748456E+001
 0.400809369665787E+001
 0.400826364697767E+001
 0.400848357615255E+001
 0.400833599942088E+001
 0.401018737370887E+001
 0.400984619596107E+001
 0.401041407123746E+001
 0.401015588811577E+001
 0.400568622542734E+001
 0.400536254437714E+001
 0.400571314807356E+001
 0.400559251990181E+001
 0.400561317449774E+001
 0.400526762076413E+001
 0.400529642011375E+001
 0.400541088361338E+001
 0.400573943126365E+001
 0.400587981373756E+001
 0.400609196811122E+001
 0.400594646591402E+001
 0.400726197345750E+001
 0.400700672717240E+001
 0.400699762275596E+001
 0.400713048790071E+001
 0.400474231534997E+001
 0.400397927650046E+001
 0.400463015005598E+001
 0.400469265838571E+001
 0.400296302267957E+001
 0.400273427586648E+001
 0.400229888744126E+001
 0.400265738454347E+001
 0.400816381445593E+001
 0.400546190120929E+001
 0.400602818659011E+001
 0.400702856562223E+001
 0.400132407738901E+001
 0.400127207754112E+001
 0.400075213708295E+001
 0.400099850804822E+001
 0.400217175966450E+001
 0.400366572080410E+001
 0.400335352260422E+001
 0.400277034995527E+001
 0.400330811336873E+001
 0.400409121405564E+001
 0.400391971474570E+001
 0.400364820321456E+001
 0.400599921223891E+001
 0.400544537747242E+001
 0.400711448579176E+001
 0.400641218820332E+001
 0.400027563914214E+001
 0.400023294183851E+001
 0.400039881485236E+001
 0.400031677239218E+001
 0.400101664443319E+001
 0.400064518904846E+001
 0.400058652041967E+001
 0.400078089277401E+001
 0.400358458925104E+001
 0.400409898892470E+001
 0.400406746982122E+001
 0.400384600324852E+001
 0.400103003544902E+001
 0.400162533665002E+001
 0.400142478210896E+001
 0.400131507912089E+001
 0.400165278618764E+001
 0.400164978938456E+001
 0.400260093072283E+001
 0.400207289251677E+001
 0.400356292077055E+001
 0.400392008261976E+001
 0.400401421168608E+001
 0.400388376689135E+001
 0.400018142939283E+001
 0.400019481435083E+001
 0.400022519287099E+001
 0.400020023613048E+001
 0.400434989071210E+001
 0.400419648776865E+001
 0.400419915122622E+001
 0.400426441125533E+001
 0.400140439210363E+001
 0.400313360619920E+001
 0.400156964366747E+001
 0.400175338752193E+001
 0.400176547767925E+001
 0.400288344932209E+001