# vtk DataFile Version 3.0
Unstructured Grid
ASCII
DATASET UNSTRUCTURED_GRID
FIELD FieldData 1
TIME 1 1 float
  0.206597E+02
POINTS         1241 double
 0.000000000000000E+000 0.000000000000000E+000 0.000000000000000E+000
 0.100000000000000E+001 0.000000000000000E+000 0.000000000000000E+000
 0.100000000000000E+001 0.100000000000000E+001 0.000000000000000E+000
 0.000000000000000E+000 0.100000000000000E+001 0.000000000000000E+000
 0.125000000000000E+000 0.250000000000000E+000 0.000000000000000E+000
 0.375000000000000E+000 0.250000000000000E+000 0.000000000000000E+000
 0.375000000000000E+000 0.750000000000000E+000 0.000000000000000E+000
 0.125000000000000E+000 0.750000000000000E+000 0.000000000000000E+000
 0.625000000000000E+000 0.250000000000000E+000 0.000000000000000E+000
 0.875000000000000E+000 0.250000000000000E+000 0.000000000000000E+000
 0.875000000000000E+000 0.750000000000000E+000 0.000000000000000E+000
 0.625000000000000E+000 0.750000000000000E+000 0.000000000000000E+000
 0.100000000000000E+001 0.500000000000000E+000 0.000000000000000E+000
 0.000000000000000E+000 0.500000000000000E+000 0.000000000000000E+000
 0.500000000000000E+000 0.000000000000000E+000 0.000000000000000E+000
 0.125000000000000E+000 0.500000000000000E+000 0.000000000000000E+000
 0.000000000000000E+000 0.750000000000000E+000 0.000000000000000E+000
 0.000000000000000E+000 0.250000000000000E+000 0.000000000000000E+000
 0.000000000000000E+000 0.875000000000000E+000 0.000000000000000E+000
 0.308529810216860E+000 0.500255759132561E+000 0.000000000000000E+000
 0.250000000000000E+000 0.000000000000000E+000 0.000000000000000E+000
 0.125000000000000E+000 0.375000000000000E+000 0.000000000000000E+000
 0.125000000000000E+000 0.625000000000000E+000 0.000000000000000E+000
 0.000000000000000E+000 0.375000000000000E+000 0.000000000000000E+000
 0.000000000000000E+000 0.437500000000000E+000 0.000000000000000E+000
 0.625000000000000E-001 0.406250000000000E+000 0.000000000000000E+000
 0.125000000000000E+000 0.437500000000000E+000 0.000000000000000E+000
 0.216796875000000E+000 0.382812500000000E+000 0.000000000000000E+000
 0.183593750000000E+000 0.468750000000000E+000 0.000000000000000E+000
 0.375000000000000E+000 0.500000000000000E+000 0.000000000000000E+000
 0.250000000000000E+000 0.468750000000000E+000 0.000000000000000E+000
 0.625000000000000E-001 0.481770833333333E+000 0.000000000000000E+000
 0.184176834650379E+000 0.540399924344460E+000 0.000000000000000E+000
 0.216796875000000E+000 0.432195490056818E+000 0.000000000000000E+000
 0.168571309840426E+000 0.406250000000000E+000 0.000000000000000E+000
 0.125000000000000E+000 0.687500000000000E+000 0.000000000000000E+000
 0.255828208111702E+000 0.540763692652926E+000 0.000000000000000E+000
 0.375000000000000E+000 0.375000000000000E+000 0.000000000000000E+000
 0.375000000000000E+000 0.625000000000000E+000 0.000000000000000E+000
 0.220170948184400E+000 0.507406813570504E+000 0.000000000000000E+000
 0.219557967718869E+000 0.628145457476636E+000 0.000000000000000E+000
 0.125000000000000E+000 0.562500000000000E+000 0.000000000000000E+000
 0.000000000000000E+000 0.625000000000000E+000 0.000000000000000E+000
 0.375000000000000E+000 0.437500000000000E+000 0.000000000000000E+000
 0.280323303380492E+000 0.407503995028409E+000 0.000000000000000E+000
 0.375000000000000E+000 0.562500000000000E+000 0.000000000000000E+000
 0.219817452482738E+000 0.577034793653623E+000 0.000000000000000E+000
 0.885901781235304E-001 0.531250000000000E+000 0.000000000000000E+000
 0.312500000000000E+000 0.250000000000000E+000 0.000000000000000E+000
 0.297268942273640E+000 0.626076494243052E+000 0.000000000000000E+000
 0.168732375746058E+000 0.593750000000000E+000 0.000000000000000E+000
 0.173890458776596E+000 0.343750000000000E+000 0.000000000000000E+000
 0.183963193611824E+000 0.278873942859495E+000 0.000000000000000E+000
 0.250000000000000E+000 0.250000000000000E+000 0.000000000000000E+000
 0.237162500098357E+000 0.317347265649589E+000 0.000000000000000E+000
 0.250000000000000E+000 0.750000000000000E+000 0.000000000000000E+000
 0.292902283271084E+000 0.575476271929907E+000 0.000000000000000E+000
 0.125000000000000E+000 0.312500000000000E+000 0.000000000000000E+000
 0.585937500000000E-001 0.335937500000000E+000 0.000000000000000E+000
 0.000000000000000E+000 0.312500000000000E+000 0.000000000000000E+000
 0.336992576921227E+000 0.687500000000000E+000 0.000000000000000E+000
 0.312500000000000E+000 0.750000000000000E+000 0.000000000000000E+000
 0.270599706447422E+000 0.686880677247748E+000 0.000000000000000E+000
 0.500000000000000E+000 0.100000000000000E+001 0.000000000000000E+000
 0.250000000000000E+000 0.100000000000000E+001 0.000000000000000E+000
 0.375000000000000E+000 0.100000000000000E+001 0.000000000000000E+000
 0.281250000000000E+000 0.830729166666667E+000 0.000000000000000E+000
 0.343750000000000E+000 0.312500000000000E+000 0.000000000000000E+000
 0.318389033445014E+000 0.364242983277493E+000 0.000000000000000E+000
 0.267787317245899E+000 0.358095790057897E+000 0.000000000000000E+000
 0.289796410792034E+000 0.300414294603983E+000 0.000000000000000E+000
 0.274503756719177E+000 0.737152390322435E-001 0.000000000000000E+000
 0.343750000000000E+000 0.183159722222222E+000 0.000000000000000E+000
 0.246744791666667E+000 0.146267361111111E+000 0.000000000000000E+000
 0.485980902777778E+000 0.146267361111111E+000 0.000000000000000E+000
 0.302262721771688E+000 0.146267361111111E+000 0.000000000000000E+000
 0.274503756719177E+000 0.197313658770435E+000 0.000000000000000E+000
 0.375000000000000E+000 0.000000000000000E+000 0.000000000000000E+000
 0.420862160086615E+000 0.187832617434252E+000 0.000000000000000E+000
 0.384683294119816E+000 0.146267361111111E+000 0.000000000000000E+000
 0.330565923051619E+000 0.413335216176427E+000 0.000000000000000E+000
 0.352621063931298E+000 0.818811625318066E+000 0.000000000000000E+000
 0.312179705605879E+000 0.796288985503351E+000 0.000000000000000E+000
 0.500000000000000E+000 0.828697389616904E+000 0.000000000000000E+000
 0.427559261986282E+000 0.805138192500353E+000 0.000000000000000E+000
 0.399035374849065E+000 0.860999763838749E+000 0.000000000000000E+000
 0.312500000000000E+000 0.000000000000000E+000 0.000000000000000E+000
 0.187500000000000E+000 0.820606518817204E+000 0.000000000000000E+000
 0.466707069430364E+000 0.898575881689250E+000 0.000000000000000E+000
 0.511172798160702E+000 0.257526753061783E+000 0.000000000000000E+000
 0.453250172578119E+000 0.849294180402265E+000 0.000000000000000E+000
 0.937500000000000E-001 0.504496261452806E-001 0.000000000000000E+000
 0.403162177800535E+000 0.933291523780214E+000 0.000000000000000E+000
 0.437500000000000E+000 0.100000000000000E+001 0.000000000000000E+000
 0.312500000000000E+000 0.934315683855312E+000 0.000000000000000E+000
 0.453353205989905E+000 0.949647808263675E+000 0.000000000000000E+000
 0.358054120979715E+000 0.953547171775243E+000 0.000000000000000E+000
 0.325154404090345E+000 0.873991089312954E+000 0.000000000000000E+000
 0.367644435624882E+000 0.899055397729593E+000 0.000000000000000E+000
 0.236990017361111E+000 0.801449092741935E+000 0.000000000000000E+000
 0.443167922913219E+000 0.252288460541578E+000 0.000000000000000E+000
 0.477263196714215E+000 0.204401840413902E+000 0.000000000000000E+000
 0.562394794036017E+000 0.187447086349591E+000 0.000000000000000E+000
 0.625000000000000E+000 0.375000000000000E+000 0.000000000000000E+000
 0.407024191230044E+000 0.312500000000000E+000 0.000000000000000E+000
 0.474084945258901E+000 0.294963270028168E+000 0.000000000000000E+000
 0.216342369774119E+000 0.930487241414522E-001 0.000000000000000E+000
 0.157072243143605E+000 0.162201579117130E+000 0.000000000000000E+000
 0.187500000000000E+000 0.000000000000000E+000 0.000000000000000E+000
 0.174352819470591E+000 0.117036261141583E+000 0.000000000000000E+000
 0.125000000000000E+000 0.000000000000000E+000 0.000000000000000E+000
 0.218750000000000E+000 0.413079239859885E-001 0.000000000000000E+000
 0.131982343008202E+000 0.962324019836500E-001 0.000000000000000E+000
 0.866442243142230E-001 0.109366815743071E+000 0.000000000000000E+000
 0.000000000000000E+000 0.125000000000000E+000 0.000000000000000E+000
 0.156250000000000E+000 0.557461246091935E-001 0.000000000000000E+000
 0.343473007945752E+000 0.889135573360382E-001 0.000000000000000E+000
 0.316206161479800E+000 0.485604570335434E-001 0.000000000000000E+000
 0.430629647389619E+000 0.697713778434944E-001 0.000000000000000E+000
 0.391175490408355E+000 0.981202752650288E-001 0.000000000000000E+000
 0.444501950008550E+000 0.736368377006958E+000 0.000000000000000E+000
 0.398829470438439E+000 0.687500000000000E+000 0.000000000000000E+000
 0.513688817046671E+000 0.757625009132424E+000 0.000000000000000E+000
 0.625000000000000E+000 0.500000000000000E+000 0.000000000000000E+000
 0.473588841595499E+000 0.786756047776317E+000 0.000000000000000E+000
 0.478860669310979E+000 0.411527234375853E+000 0.000000000000000E+000
 0.572911532233985E+000 0.805885984489640E+000 0.000000000000000E+000
 0.447298813474571E+000 0.682006891579307E+000 0.000000000000000E+000
 0.504019394669429E+000 0.534902916754864E+000 0.000000000000000E+000
 0.486274863958833E+000 0.352843653662708E+000 0.000000000000000E+000
 0.551332894747653E+000 0.390873360445252E+000 0.000000000000000E+000
 0.433027718644055E+000 0.375926460599989E+000 0.000000000000000E+000
 0.437992666628316E+000 0.468750000000000E+000 0.000000000000000E+000
 0.421394775819071E+000 0.423093236096220E+000 0.000000000000000E+000
 0.501785840486804E+000 0.471105361968983E+000 0.000000000000000E+000
 0.433650269193003E+000 0.539110962574808E+000 0.000000000000000E+000
 0.559767288621728E+000 0.501013305633588E+000 0.000000000000000E+000
 0.473047166828055E+000 0.607447789310414E+000 0.000000000000000E+000
 0.551301338206151E+000 0.446268697831009E+000 0.000000000000000E+000
 0.625000000000000E+000 0.625000000000000E+000 0.000000000000000E+000
[...]
CELL_DATA         2368
SCALARS tdens double 1
LOOKUP_TABLE default
 0.104466933917641E-002
 0.145788890222226E-002
 0.647745558994039E-003
 0.107918826770960E-002
 0.307071735678964E-003
 0.357179836657674E-003
 0.331913879071842E-003
 0.330978116373640E-003
 0.199946894963927E-001
 0.427650189341849E-001
 0.214935935285477E-001
 0.218994957059837E-001
 0.395598077316299E-001
 0.524198804228575E-001
 0.272811141982184E-001
 0.300059625873967E-001
 0.383159789089395E-001
 0.168144621822033E-001
 0.276472842719473E-001
 0.281065148856506E-001
 0.124524138692761E-003
 0.118007081624728E-003
 0.119170851508105E-003
 0.120640458788026E-003
 0.308084461550570E-003
 0.536948041843497E-003
 0.389544058649646E-003
 0.357702293654337E-003
 0.901251139600049E-002
 0.955423684544082E-002
 0.156263609946194E-001
 0.103622471653146E-001
 0.977964882349509E-002
 0.143868872286102E-001
 0.833305512722098E-002
 0.968598907009235E-002
 0.330972627666095E-003
 0.309865912107336E-003
 0.340723028451606E-003
 0.325514281129187E-003
 0.355449188608420E-003
 0.385441429508743E-003
 0.407301781344995E-003
 0.380409877504843E-003
 0.142403107924577E-002
 0.118901815445153E-002
 0.891409105483742E-003
 0.111098688270525E-002
 0.785744328987082E-001
 0.313909244298652E-001
 0.317933604729890E-001
 0.438821212718525E-001
 0.251388826988704E-002
 0.225399687278104E-002
 0.359583164166580E-002
 0.250275886682955E-002
 0.116337178571336E-003
 0.113877316976952E-003
 0.116564631814272E-003
 0.115028848537065E-003
 0.426201814194728E-003
 0.502741876955398E-003
 0.440541581385807E-003
 0.459917493856516E-003
 0.633437677329835E-003
 0.519984888056867E-003
 0.665919399288694E-003
 0.597614958514781E-003
 0.150600339951224E-003
 0.159090830517042E-003
 0.154691100546326E-003
 0.153472697357190E-003
 0.157330040826353E-003
 0.182099016156550E-003
 0.151391794298662E-003
 0.157539664747924E-003
 0.150413992222464E-001
 0.122851167098717E-001
 0.955326883497629E-002
 0.125911420844135E-001
 0.617613392506666E-002
 0.176532176980662E-001
 0.598902784511864E-002
 0.662948895317454E-002
 0.290795293696108E-003
 0.224721604669892E-003
 0.237087720126559E-003
 0.241703939237486E-003
 0.319327436510884E-001
 0.391665940493807E-001
 0.124897354725182E-001
 0.122495675649148E-001
 0.148826378745420E-003
 0.150552161519609E-003
 0.158311737533083E-003
 0.152501291848898E-003
 0.889143278146674E-001
 0.236971820592535E+000
 0.349977635958037E+000
 0.170846828678887E+000
 0.226772625294577E-001
 0.265393401818885E-001
 0.480704415092580E-001
 0.226511035394108E-001
 0.161155585009561E-003
 0.151834919838881E-003
 0.162355877479531E-003
 0.156756586122005E-003
 0.161284573421550E-003
 0.158433310902602E-003
 0.173654608251420E-003
 0.163959138419657E-003
 0.190184281623310E-003
 0.198023710732375E-003
 0.181435594822359E-003
 0.189493010545286E-003
 0.154119232232798E-002
 0.189860505147264E-002
 0.299024629168136E-002
 0.207429115351562E-002
 0.601568347920947E-002
 0.375745958263098E-002
 0.624786967997659E-002
 0.566294747533504E-002
 0.341665150466802E-003
 0.223145232942808E-003
 0.248853377524235E-003
 0.255424332653289E-003
 0.187439272084178E-003
 0.187124085544098E-003
 0.185988794130524E-003
 0.187012463799852E-003
 0.315314653482387E-001
 0.235581172188611E-001
 0.221028115456197E-001
 0.237973138071654E-001
 0.218346787104896E-003
 0.196176269329679E-003
 0.217582776987880E-003
 0.211246166047955E-003
 0.247705784736309E-003
 0.224322661754968E-003
 0.370153038644114E-003
 0.260343912820781E-003
 0.191525233547769E-003
 0.192605045793183E-003
 0.199492419222412E-003
 0.193867830859644E-003
 0.190603583809093E-003
 0.189238297454249E-003
 0.187527493925426E-003
 0.189218078159035E-003
 0.181482529235440E-003
 0.153155020826481E-003
 0.185940988910612E-003
 0.166406133353542E-003
 0.580465169740231E-002
 0.197998078357795E-002
 0.881151071694464E-003
 0.240352025181043E-002
 0.154510327482421E-001
 0.384489119501768E-002
 0.194513685322772E-001
 0.590438413611070E-002
 0.214135405797333E-001
 0.466907943103830E-001
 0.850058087912904E-001
 0.890620817388465E-001
 0.271496281124388E-002
 0.762429001337563E-003
 0.200038497454195E-003
 0.895675633834105E-003
 0.155460386301918E+000
 0.648093281729653E-001
 0.100466710540206E+000
 0.586692776534742E-001
 0.533723466673632E-001
 0.389819272455026E-001
 0.651266231591631E-001
 0.700710554162611E-001
 0.765555704229513E-003
 0.825711503710513E-003
 0.770356068174783E-002
 0.456864718207633E-002
 0.204829106249550E-003
 0.196648788825766E-003
 0.188882420189364E-003
 0.195261509248075E-003
 0.193954623383197E-002
 0.130003868663403E-002
 0.157030514640229E-002
 0.162241538793472E-002
 0.184629632329358E-003
 0.185778558791052E-003
 0.181869741124168E-003
 0.183263028619763E-003
 0.197955252611260E-003
 0.191662385949801E-003
 0.186593249959130E-003
 0.189050760715265E-003
 0.853361129842662E-003
 0.788859383223456E-003
 0.560029399572131E-002
 0.365480232124811E-002
 0.969533136803510E-003
 0.709778654781004E-003
 0.579089931221997E-002
 0.748751043682497E-003
 0.495048797071489E-002
 0.202970293102807E-001
 0.346783973327329E-002
 0.126701677250636E-001
 0.149010069812802E-001
 0.116444983004132E-001
 0.191580555661285E-001
 0.121632397643310E-001
 0.974854646574239E-002
 0.289595293114800E-002
 0.235545874256079E-002
 0.297524104723143E-002
 0.124458449363724E-001
 0.260140347104045E-002
 0.471087293848690E-002
 0.747391733583806E-002
 0.167820395523147E+000
 0.586288725639028E-001
 0.223779459184713E+000
 0.253364285340630E+000
 0.185239348144234E-003
 0.176377671880131E-003
 0.178805206368144E-003
 0.180944658578538E-003
 0.640349851580359E-001
 0.653978545344819E-001
 0.300613894258964E+000
 0.559711138200923E-001
 0.616993398230653E-003
 0.774439567244475E-003
 0.346816308087272E-003
 0.520602111250023E-003
 0.403308196583979E-003
 0.377630982076872E-003
 0.442954597167547E-003
 0.402475536841415E-003
 0.855269451957974E-003
 0.102405187058558E-002
 0.133322883426179E-002
 0.106840158162588E-002
 0.330161223037421E-001
 0.390710189349879E-001
 0.204784789431432E-001
 0.349749671654148E-001
 0.828469641762130E-003
 0.775502883433532E-003
 0.102766689704244E-002
 0.846622133705420E-003
 0.218521187502519E-001
 0.482079359917769E-001
 0.409442422582300E-001
 0.391489660750220E-001
 0.273536736632900E-001
 0.319891096538553E-001
 0.192097368667286E-001
 0.279037332963699E-001
 0.891244766609708E-002
 0.196161445593608E-001
 0.754565014094558E-002
 0.966835904921633E-002
 0.582292356368952E-002
 0.110292997340976E-001
 0.704888827994823E-002
 0.749801994033838E-002
 0.267865686734673E-002
 0.106526401655670E-001
 0.835571773850820E-002
 0.847215864295211E-002
 0.726786137278627E-003
 0.902302946465083E-003
 0.120599758765709E-002
 0.856744744451872E-003
 0.209200614815070E-003
 0.196767071289854E-003
 0.221497702461643E-003
 0.205093750923906E-003
 0.266026611981151E-001
 0.107971576688237E-001
 0.814452468417480E-002
 0.757918572244161E-002
 0.211634558796592E-001
 0.185738385257822E-001
 0.266382498552718E-001
 0.227585872448542E-001
 0.146804067873575E-001
 0.164464553496861E-001
 0.161772932796180E-001
 0.185832508705319E-001
 0.427919634331937E-002
 0.139017204205399E-002
 0.177070669710361E-002
 0.199715265419084E-002
 0.740756555703534E-002
 0.462642166328879E-002
 0.187515005534966E-001
 0.623394414707153E-002
 0.107650217206713E+000
 0.197458095347824E+000
 0.667335083170216E+000
 0.231833838146188E+000
 0.669499776096697E-002
 0.133834369856314E-001
 0.160182546843989E-001
 0.152428014051663E-001
 0.164136865121774E-001
 0.388681848925800E-001
 0.256460127913675E-001
 0.246991169318823E-001
 0.744630778964044E-002
 0.763699530868199E-003
 0.500837531778739E-002
 0.482290981450873E-002
 0.263544369946362E-003
 0.213256978700726E-003
 0.328945451411254E-003
 0.256676582033782E-003
 0.190622099455703E-003
 0.178927964928804E-003
 0.202408141718248E-003
 0.189432373520725E-003
 0.879402187418549E-001
 0.727841812646448E-001
 0.118861390312430E+000
 0.914536566901852E-001
 0.129223749501751E-001
 0.671442087896229E-002
 0.145171425806307E-001
 0.145409284813376E-001
 0.955415018879267E-002
 0.933361936450983E-002
 0.155916658158768E-001
 0.100449856239183E-001
 0.246278595167638E-002
 0.643372936824839E-002
 0.985867796108694E-002
 0.718310503847294E-002
 0.974324887572802E-002
 0.289852181422642E-002
 0.203582429686276E-002
 0.378429238047404E-002
 0.171578149483958E-002
 0.171490607481960E-002
 0.607050438077043E-002
 0.193235491530413E-002
 0.125343149310785E-001
 0.366172550523182E-002
 0.158953757276806E-001
 0.186773781077575E-001
 0.932772995014033E-002
 0.144815479308234E-001
 0.184392915322046E-001
 0.218658417433302E-001
 0.351490207784527E-003
 0.687593618831588E-003
 0.110334057656411E-002
 0.629553552633174E-003
 0.682851232337912E-001
 0.721072133980018E-001
 0.932167451952237E-001
 0.804578793546378E-001
 0.255048435745828E-002
 0.501204777969182E-002
 0.403084053563164E-002
 0.372373019755910E-002
 0.158882582366507E-001
 0.208325088855628E-001
 0.326292013062126E-001
 0.230154196205777E-001
 0.514320576683588E-002
 0.151637750127908E+000
 0.184671055807919E-001
 0.431102899962243E-002
 0.839566034234717E-003
 0.578617617108552E-003
 0.665992027417094E-003
 0.690618213082267E-003
 0.682414004103238E-002
 0.546005511244123E-002
 0.526412557048392E-002
 0.507120957519679E-002
 0.283336194262167E-001
 0.481721706897845E-001
 0.470926673018404E-001
 0.396872382530185E-001
 0.574676807631085E-001
 0.971294906949963E-001
 0.871150834828313E+000
 0.977722352173584E-001
 0.119942260666249E-001
 0.565259108842223E-002
 0.313658885233975E-002
 0.455143913655589E-002
 0.111245102074236E-002
 0.989059996868172E-003
 0.340662910486736E-003
 0.605789426960000E-003
 0.129557387611428E+000
 0.949607366826089E-001
 0.279863936923915E-001
 0.693588543934022E-001
 0.173958180280800E-003
 0.184037751623248E-003
 0.185624793576519E-003
 0.180010976189666E-003
 0.196147804089915E-003
 0.214000753955097E-003
 0.189953209650239E-003
 0.198999861763415E-003
 0.773401942188062E-002
 0.189721774256613E-001
 0.201220160083990E-001
 0.208753023304910E-001
 0.198166972632497E-003
 0.192843021515112E-003
 0.192070041696987E-003
 0.194285520475246E-003
 0.605044313736382E-002
 0.928736982460911E-002
 0.644718776830346E-002
 0.772420180927954E-002
 0.117090243228820E-001
 0.172033720438410E-001
 0.182384448104751E-001
 0.185536982655250E-001
 0.435697221462511E-001
 0.351127564347715E-001
 0.207079044777209E-001
 0.396939427203695E-001
 0.409697819964060E-003
 0.733141222942642E-003
 0.326938597729907E-002
 0.243260929452662E-002
 0.226515225104128E-002
 0.389288042520144E-002
 0.370502641049284E-002
 0.341468286414530E-002
 0.576329201926557E-002
 0.331238772175572E-002
 0.530193176477838E-002
 0.486130169178122E-002
 0.275067720622541E-002
 0.380049708664451E-002
 0.470358417892312E-002
 0.382080749346743E-002
 0.106774198245563E-001
 0.154694312028282E-001
 0.183444059086147E-001
 0.141678748052973E-001
 0.104877023281537E-002
 0.105709729162127E-002
 0.133186820796729E-002
 0.109680843308394E-002
 0.762175912743844E-003
 0.748553261042194E-003
 0.102742178988660E-002
 0.804782412574893E-003
 0.241585217161585E-001
 0.830491565422849E-002
 0.516294530165049E-002
 0.689878118735831E-002
 0.288933881391297E-001
 0.104508957427606E-001
 0.127727635098272E-001
 0.131812691758364E-001
 0.285347775448961E-002
 0.660985008417431E-002
 0.561977817550904E-002
 0.495020969994298E-002
 0.987606213990134E-002
 0.202852451597093E-001
 0.184647204280876E-001
 0.225907062233859E-001
 0.930235501852567E-001
 0.811650600916051E-001
 0.570452625700464E-001
 0.587872023415731E-001
 0.133853704269718E+000
 0.142233605862374E+000
 0.717340624036346E-001
 0.116914940831318E+000
 0.640563346708312E-002
 0.829497433808644E-002
 0.151705579284588E-001
 0.847805276980097E-002
 0.212871198769375E-001
 0.105988367188281E-001
 0.297392770994121E-001
 0.219409710774337E-001
 0.492358346995928E-003
 0.469783524313206E-003
 0.570609364776355E-003
 0.502461219547730E-003
 0.762263706921037E-003
 0.970424068213062E-003
 0.718676696051657E-003
 0.798937982563968E-003
 0.363141918014145E-001
 0.821978742405905E-001
 0.681815613937945E-002
 0.412361256248081E-001
 0.559650302032596E-003
 0.854442338187964E-003
 0.562813568215795E-003
 0.630498887706205E-003
 0.137095564437661E-001
 0.920038283949729E-003
 0.128765211940766E-002
 0.627824064966595E-002
 0.190641295863143E-003
 0.148978246471714E-003
 0.239937768450759E-003
 0.179241371029800E-003
 0.526547685336153E-003
 0.620275300004532E-003
 0.533928104116169E-003
 0.554355444201348E-003
 0.868570707611714E-003
 0.740348294475720E-003
 0.664606218656651E-003
 0.739648015344983E-003
 0.325665655338650E-002
 0.171097530783199E-002
 0.329399717012374E-002
 0.273273941212831E-002
 0.180567359001143E-002
 0.767805562858371E-003
 0.599440772956501E-003
 0.771931738694221E-003
 0.252618692748428E-002
 0.158190094530019E-002
 0.307170957917743E-002
 0.215022085462124E-002
 0.266386708777791E-002
 0.139002925819837E-002
 0.142046172460897E-002
 0.159632529795823E-002
 0.215939980543808E-003
 0.215561372083878E-003
 0.257219543813766E-003
 0.224619327722699E-003
 0.316116288008376E-002
 0.193405033994713E-002
 0.277637527216181E-002
 0.275967431496469E-002
 0.104709946838703E-002
 0.101861720239661E-002
 0.760246620120459E-003
 0.931486114094308E-003
 0.449794277890455E-003
 0.592303485832882E-003
 0.558952285420409E-003
 0.529448506199714E-003
 0.811642289692652E-002
 0.538563832217106E-002
 0.734639355564420E-002
 0.729419546849357E-002
 0.493355544247753E-003
 0.636662260139625E-003
 0.608525380611756E-003
 0.574219773089377E-003
 0.448197646809039E-002
 0.285282440823783E-002
 0.398849462018782E-002
 0.405301512760141E-002
 0.588372057006289E-003
 0.521364483339139E-003
 0.500033792863315E-003
 0.535511549339817E-003
 0.957646670085588E-002
 0.826479328443458E-002
 0.110126505531827E-001
 0.105565128675270E-001
 0.131877221980531E-002
 0.180662226914120E-002
 0.113502145916910E-002
 0.134075388339084E-002
 0.114757594946442E-001
 0.614685359549975E-002
 0.104876067935034E-001
 0.106637274394109E-001
 0.216547628959474E-001
 0.206611066361045E-001
 0.312553605220701E-001
 0.233589755412955E-001
 0.521317173260187E-002
 0.786155040426765E-002
 0.648427526821954E-002
 0.671004110958315E-002
 0.168890553042112E-002
 0.287635897875874E-002
 0.117876059014563E-002
 0.156915722703993E-002
 0.130490203720497E-001
 0.140223784125186E-001
 0.144033106516166E-001
 0.139236593767946E-001
 0.178524936249314E-002
 0.149515786428294E-002
 0.116124618808070E-002
 0.148900202031941E-002
 0.396617736716331E-002
 0.604000522801238E-002
 0.656095377751554E-002
 0.581803545795146E-002
 0.230821395829297E-003
 0.291599953236725E-003
 0.394186764992537E-003
 0.290520147824338E-003
 0.678805220455616E-003
 0.723221171298748E-003
 0.827154003551054E-003
 0.756274326732945E-003
 0.146263761222248E-003
 0.133561275796836E-003
 0.144103348944086E-003
 0.141295923006777E-003
 0.534859478693911E-002
 0.342558672759048E-002
 0.314187829324385E-002
 0.357109806405671E-002
 0.405397103657559E-003
 0.250387037125766E-003
 0.293475149447152E-003
 0.307212155835891E-003
 0.355681540090985E-002
 0.286979369297245E-002
 0.490599293537722E-002
 0.330143435926019E-002
 0.747341673052011E-003
 0.801681703186620E-003
 0.957715495074819E-003
 0.822335365365131E-003
 0.139989689614107E-003
 0.146017313688374E-003
 0.170835965959119E-003
 0.152526483225686E-003
 0.254394143405745E-002
 0.299082313972242E-002
 0.585155856530211E-002
 0.334225385111021E-002
 0.233718609338709E-002
 0.264062846583341E-002
 0.183296617286431E-002
 0.217873828461173E-002
 0.523296597832559E-002
 0.579070408679790E-002
 0.384146840436765E-002
 0.576498409842425E-002
 0.933448966633461E-003
 0.843769301743083E-003
 0.910820653768727E-003
 0.878941487677527E-003
 0.377357589317650E-003
 0.414089721520728E-003
 0.451549264267161E-003
 0.414466027242189E-003
 0.252608747412364E-002
 0.542750843908521E-003
 0.746562824608168E-003
 0.769258791760642E-003
 0.716200647666893E-003
 0.841139094872754E-003
 0.796072906740005E-003
 0.770916869289860E-003
 0.226873417440742E-002
 0.373709244339776E-002
 0.452699811102721E-002
 0.346869600456625E-002
 0.281754176013948E-003
 0.341944027248226E-003
 0.290939567845896E-003
 0.305872005829147E-003
 0.905536963477964E-003
 0.851660215115140E-003
 0.922100524561243E-003
 0.894560789926058E-003
 0.549276343994611E-003
 0.654876709961734E-003
 0.638879413055237E-003
 0.598602949588386E-003
 0.810945705556322E-003
 0.124068436110970E-002
 0.113227914295320E-002
 0.108764256147744E-002
 0.263723038690321E-002
 0.214831591427752E-002
 0.420407462794871E-002
 0.279799588542554E-002
 0.909817161607087E-003
 0.123634449391242E-002
 0.771828222600788E-003
 0.923064227770948E-003
 0.806081284359797E-003
 0.106043652385026E-002
 0.955966260841136E-003
 0.928696002019976E-003
 0.169570656322319E-002
 0.204542816228407E-002
 0.144524544386065E-002
 0.167006440858420E-002
 0.237031860598183E-002
 0.801676275261722E-002
 0.423480317725016E-002
 0.508576872610897E-002
 0.209377251523001E-001
 0.192942387436253E-001
 0.829471673852626E-002
 0.180297801566270E-001
 0.573009269324527E-003
 0.622818945033795E-003
 0.485588547556350E-003
 0.563724658320219E-003
 0.943244875738578E-003
 0.770772596742417E-003
 0.993381259053397E-003
 0.904665552159395E-003
 0.423786559727635E-003
 0.523289344870934E-003
 0.449002105348114E-003
 0.457809387989239E-003
 0.703782977548269E-003
 0.848981377477462E-003
 0.654333669965600E-003
 0.726879538135686E-003
 0.252264254030032E-003
 0.275759823855366E-003
 0.273010140864934E-003
 0.263397707636200E-003
 0.348878716797756E-003
 0.346422384818986E-003
 0.393161847620266E-003
 0.363070465918336E-003
 0.736868355158438E+000
 0.559410441850884E+000
 0.364899742870174E-001
 0.688116051843285E+000
 0.125332449665616E-001
 0.403889072163421E-001
 0.370201506082578E-001
 0.385218427256251E-001
 0.174767290620107E-002
 0.125644381880088E-002
 0.201065804230922E-002
 0.163491336523825E-002
 0.187951206773298E-002
 0.118824299760709E-002
 0.124859676687584E-002
 0.133298953174695E-002
 0.125940669489782E-002
 0.112617025582967E-002
 0.154156464078315E-002
 0.124798442890486E-002
 0.184546635402759E-001
 0.171857199395995E-001
 0.114763747467802E-001
 0.147194618903964E-001
 0.539785262453156E-002
 0.129374072283829E-002
 0.125335485338155E-002
 0.145598289534497E-002
 0.276985761912916E-003
 0.268764318103828E-003
 0.232497142228935E-003
 0.257236313063059E-003
 0.111755558675481E-001
 0.419836242448085E-001
 0.162892494352260E-001
 0.238781729098131E-001
 0.192133679907617E-003
 0.204417210602012E-003
 0.150203728737286E-003
 0.172521496895502E-003
 0.274047658635136E-003
 0.484439738023951E-003
 0.539616663014975E-003
 0.410653060843124E-003
 0.337429549687843E-003
 0.445115304707621E-003
 0.474119985800297E-003
 0.412391767203169E-003
 0.651705421388531E-002
 0.102593663291346E-002
 0.357332913705640E-002
 0.397512985530084E-002
 0.128968035215891E-003
 0.119406544245309E-003
 0.133791700475155E-003
 0.125334837914184E-003
 0.189888145939584E-003
 0.153042417129725E-003
 0.140534341937076E-003
 0.160350599323969E-003
 0.324150698356009E-003
 0.386778365032370E-003
 0.403544517268458E-003
 0.366753726677543E-003
 0.158757073134703E-003
 0.192130470505749E-003
 0.186663888923209E-003
 0.175710880209169E-003
 0.277437977015252E-003
 0.236573168620402E-003
 0.502418301898940E-003
 0.303289270221229E-003
 0.322342808381209E-003
 0.351427162098993E-003
 0.372438887177787E-003
 0.345429095945824E-003
 0.116591571789136E-003
 0.117499447839604E-003
 0.122387028890577E-003
 0.118215374539424E-003
 0.423886429368524E-003
 0.376002707678196E-003
 0.391362551510879E-003
 0.399261095389401E-003
 0.613409887676299E-003
 0.140205798357823E-002
 0.468768964442913E-002
 0.156193785393662E-002
 0.355431848249298E-003
 0.724738689395463E-003