# vtk DataFile Version 3.0
Unstructured Grid
ASCII
DATASET UNSTRUCTURED_GRID
FIELD FieldData 1
TIME 1 1 float
  0.246597E+02
POINTS         1241 double
 0.000000000000000E+000 0.000000000000000E+000 0.000000000000000E+000
 0.100000000000000E+001 0.000000000000000E+000 0.000000000000000E+000
 0.100000000000000E+001 0.100000000000000E+001 0.000000000000000E+000
 0.000000000000000E+000 0.100000000000000E+001 0.000000000000000E+000
 0.125000000000000E+000 0.250000000000000E+000 0.000000000000000E+000
 0.375000000000000E+000 0.250000000000000E+000 0.000000000000000E+000
 0.375000000000000E+000 0.750000000000000E+000 0.000000000000000E+000
 0.125000000000000E+000 0.750000000000000E+000 0.000000000000000E+000
 0.625000000000000E+000 0.250000000000000E+000 0.000000000000000E+000
 0.875000000000000E+000 0.250000000000000E+000 0.000000000000000E+000
 0.875000000000000E+000 0.750000000000000E+000 0.000000000000000E+000
 0.625000000000000E+000 0.750000000000000E+000 0.000000000000000E+000
 0.100000000000000E+001 0.500000000000000E+000 0.000000000000000E+000
 0.000000000000000E+000 0.500000000000000E+000 0.000000000000000E+000
 0.500000000000000E+000 0.000000000000000E+000 0.000000000000000E+000
 0.125000000000000E+000 0.500000000000000E+000 0.000000000000000E+000
 0.000000000000000E+000 0.750000000000000E+000 0.000000000000000E+000
 0.000000000000000E+000 0.250000000000000E+000 0.000000000000000E+000
 0.000000000000000E+000 0.875000000000000E+000 0.000000000000000E+000
 0.308529810216860E+000 0.500255759132561E+000 0.000000000000000E+000
 0.250000000000000E+000 0.000000000000000E+000 0.000000000000000E+000
 0.125000000000000E+000 0.375000000000000E+000 0.000000000000000E+000
 0.125000000000000E+000 0.625000000000000E+000 0.000000000000000E+000
 0.000000000000000E+000 0.375000000000000E+000 0.000000000000000E+000
 0.000000000000000E+000 0.437500000000000E+000 0.000000000000000E+000
 0.625000000000000E-001 0.406250000000000E+000 0.000000000000000E+000
 0.125000000000000E+000 0.437500000000000E+000 0.000000000000000E+000
 0.216796875000000E+000 0.382812500000000E+000 0.000000000000000E+000
 0.183593750000000E+000 0.468750000000000E+000 0.000000000000000E+000
 0.375000000000000E+000 0.500000000000000E+000 0.000000000000000E+000
 0.250000000000000E+000 0.468750000000000E+000 0.000000000000000E+000
 0.625000000000000E-001 0.481770833333333E+000 0.000000000000000E+000
 0.184176834650379E+000 0.540399924344460E+000 0.000000000000000E+000
 0.216796875000000E+000 0.432195490056818E+000 0.000000000000000E+000
 0.168571309840426E+000 0.406250000000000E+000 0.000000000000000E+000
 0.125000000000000E+000 0.687500000000000E+000 0.000000000000000E+000
 0.255828208111702E+000 0.540763692652926E+000 0.000000000000000E+000
 0.375000000000000E+000 0.375000000000000E+000 0.000000000000000E+000
 0.375000000000000E+000 0.625000000000000E+000 0.000000000000000E+000
 0.220170948184400E+000 0.507406813570504E+000 0.000000000000000E+000
 0.219557967718869E+000 0.628145457476636E+000 0.000000000000000E+000
 0.125000000000000E+000 0.562500000000000E+000 0.000000000000000E+000
 0.000000000000000E+000 0.625000000000000E+000 0.000000000000000E+000
 0.375000000000000E+000 0.437500000000000E+000 0.000000000000000E+000
 0.280323303380492E+000 0.407503995028409E+000 0.000000000000000E+000
 0.375000000000000E+000 0.562500000000000E+000 0.000000000000000E+000
 0.219817452482738E+000 0.577034793653623E+000 0.000000000000000E+000
 0.885901781235304E-001 0.531250000000000E+000 0.000000000000000E+000
 0.312500000000000E+000 0.250000000000000E+000 0.000000000000000E+000
 0.297268942273640E+000 0.626076494243052E+000 0.000000000000000E+000
 0.168732375746058E+000 0.593750000000000E+000 0.000000000000000E+000
 0.173890458776596E+000 0.343750000000000E+000 0.000000000000000E+000
 0.183963193611824E+000 0.278873942859495E+000 0.000000000000000E+000
 0.250000000000000E+000 0.250000000000000E+000 0.000000000000000E+000
 0.237162500098357E+000 0.317347265649589E+000 0.000000000000000E+000
 0.250000000000000E+000 0.750000000000000E+000 0.000000000000000E+000
 0.292902283271084E+000 0.575476271929907E+000 0.000000000000000E+000
 0.125000000000000E+000 0.312500000000000E+000 0.000000000000000E+000
 0.585937500000000E-001 0.335937500000000E+000 0.000000000000000E+000
 0.000000000000000E+000 0.312500000000000E+000 0.000000000000000E+000
 0.336992576921227E+000 0.687500000000000E+000 0.000000000000000E+000
 0.312500000000000E+000 0.750000000000000E+000 0.000000000000000E+000
 0.270599706447422E+000 0.686880677247748E+000 0.000000000000000E+000
 0.500000000000000E+000 0.100000000000000E+001 0.000000000000000E+000
 0.250000000000000E+000 0.100000000000000E+001 0.000000000000000E+000
 0.375000000000000E+000 0.100000000000000E+001 0.000000000000000E+000
 0.281250000000000E+000 0.830729166666667E+000 0.000000000000000E+000
 0.343750000000000E+000 0.312500000000000E+000 0.000000000000000E+000
 0.318389033445014E+000 0.364242983277493E+000 0.000000000000000E+000
 0.267787317245899E+000 0.358095790057897E+000 0.000000000000000E+000
 0.289796410792034E+000 0.300414294603983E+000 0.000000000000000E+000
 0.274503756719177E+000 0.737152390322435E-001 0.000000000000000E+000
 0.343750000000000E+000 0.183159722222222E+000 0.000000000000000E+000
 0.246744791666667E+000 0.146267361111111E+000 0.000000000000000E+000
 0.485980902777778E+000 0.146267361111111E+000 0.000000000000000E+000
 0.302262721771688E+000 0.146267361111111E+000 0.000000000000000E+000
 0.274503756719177E+000 0.197313658770435E+000 0.000000000000000E+000
 0.375000000000000E+000 0.000000000000000E+000 0.000000000000000E+000
 0.420862160086615E+000 0.187832617434252E+000 0.000000000000000E+000
 0.384683294119816E+000 0.146267361111111E+000 0.000000000000000E+000
 0.330565923051619E+000 0.413335216176427E+000 0.000000000000000E+000
 0.352621063931298E+000 0.818811625318066E+000 0.000000000000000E+000
 0.312179705605879E+000 0.796288985503351E+000 0.000000000000000E+000
 0.500000000000000E+000 0.828697389616904E+000 0.000000000000000E+000
 0.427559261986282E+000 0.805138192500353E+000 0.000000000000000E+000
 0.399035374849065E+000 0.860999763838749E+000 0.000000000000000E+000
 0.312500000000000E+000 0.000000000000000E+000 0.000000000000000E+000
 0.187500000000000E+000 0.820606518817204E+000 0.000000000000000E+000
 0.466707069430364E+000 0.898575881689250E+000 0.000000000000000E+000
 0.511172798160702E+000 0.257526753061783E+000 0.000000000000000E+000
 0.453250172578119E+000 0.849294180402265E+000 0.000000000000000E+000
 0.937500000000000E-001 0.504496261452806E-001 0.000000000000000E+000
 0.403162177800535E+000 0.933291523780214E+000 0.000000000000000E+000
 0.437500000000000E+000 0.100000000000000E+001 0.000000000000000E+000
 0.312500000000000E+000 0.934315683855312E+000 0.000000000000000E+000
 0.453353205989905E+000 0.949647808263675E+000 0.000000000000000E+000
 0.358054120979715E+000 0.953547171775243E+000 0.000000000000000E+000
 0.325154404090345E+000 0.873991089312954E+000 0.000000000000000E+000
 0.367644435624882E+000 0.899055397729593E+000 0.000000000000000E+000
 0.236990017361111E+000 0.801449092741935E+000 0.000000000000000E+000
 0.443167922913219E+000 0.252288460541578E+000 0.000000000000000E+000
 0.477263196714215E+000 0.204401840413902E+000 0.000000000000000E+000
 0.562394794036017E+000 0.187447086349591E+000 0.000000000000000E+000
 0.625000000000000E+000 0.375000000000000E+000 0.000000000000000E+000
 0.407024191230044E+000 0.312500000000000E+000 0.000000000000000E+000
 0.474084945258901E+000 0.294963270028168E+000 0.000000000000000E+000
 0.216342369774119E+000 0.930487241414522E-001 0.000000000000000E+000
 0.157072243143605E+000 0.162201579117130E+000 0.000000000000000E+000
 0.187500000000000E+000 0.000000000000000E+000 0.000000000000000E+000
 0.174352819470591E+000 0.117036261141583E+000 0.000000000000000E+000
 0.125000000000000E+000 0.000000000000000E+000 0.000000000000000E+000
 0.218750000000000E+000 0.413079239859885E-001 0.000000000000000E+000
 0.131982343008202E+000 0.962324019836500E-001 0.000000000000000E+000
 0.866442243142230E-001 0.109366815743071E+000 0.000000000000000E+000
 0.000000000000000E+000 0.125000000000000E+000 0.000000000000000E+000
 0.156250000000000E+000 0.557461246091935E-001 0.000000000000000E+000
 0.343473007945752E+000 0.889135573360382E-001 0.000000000000000E+000
 0.316206161479800E+000 0.485604570335434E-001 0.000000000000000E+000
 0.430629647389619E+000 0.697713778434944E-001 0.000000000000000E+000
 0.391175490408355E+000 0.981202752650288E-001 0.000000000000000E+000
 0.444501950008550E+000 0.736368377006958E+000 0.000000000000000E+000
 0.398829470438439E+000 0.687500000000000E+000 0.000000000000000E+000
 0.513688817046671E+000 0.757625009132424E+000 0.000000000000000E+000
 0.625000000000000E+000 0.500000000000000E+000 0.000000000000000E+000
 0.473588841595499E+000 0.786756047776317E+000 0.000000000000000E+000
 0.478860669310979E+000 0.411527234375853E+000 0.000000000000000E+000
 0.572911532233985E+000 0.805885984489640E+000 0.000000000000000E+000
 0.447298813474571E+000 0.682006891579307E+000 0.000000000000000E+000
 0.504019394669429E+000 0.534902916754864E+000 0.000000000000000E+000
 0.486274863958833E+000 0.352843653662708E+000 0.000000000000000E+000
 0.551332894747653E+000 0.390873360445252E+000 0.000000000000000E+000
 0.433027718644055E+000 0.375926460599989E+000 0.000000000000000E+000
 0.437992666628316E+000 0.468750000000000E+000 0.000000000000000E+000
 0.421394775819071E+000 0.423093236096220E+000 0.000000000000000E+000
 0.501785840486804E+000 0.471105361968983E+000 0.000000000000000E+000
 0.433650269193003E+000 0.539110962574808E+000 0.000000000000000E+000
 0.559767288621728E+000 0.501013305633588E+000 0.000000000000000E+000
 0.473047166828055E+000 0.607447789310414E+000 0.000000000000000E+000
 0.551301338206151E+000 0.446268697831009E+000 0.000000000000000E+000
 0.625000000000000E+000 0.625000000000000E+000 0.000000000000000E+000
[...]
CELL_DATA         2368
SCALARS tdens double 1
LOOKUP_TABLE default
 0.535044467311228E-004
 0.921420527630244E-004
 0.311231078791043E-004
 0.585660799677978E-004
 0.127299842741133E-004
 0.149248067716296E-004
 0.138199108616997E-004
 0.137685951919637E-004
 0.185895612409433E-001
 0.454971379247254E-001
 0.728971166706953E-002
 0.263595009350233E-001
 0.747470275096246E+000
 0.203514361096395E+000
 0.440783606640493E+000
 0.890314125947421E-001
 0.236636548066771E-002
 0.111072454778939E-002
 0.157427266369778E-002
 0.166451956960182E-002
 0.497126250463704E-005
 0.468842254499275E-005
 0.473757407296368E-005
 0.480155491809936E-005
 0.220705007582911E-004
 0.764971518199121E-004
 0.460026232092635E-004
 0.358981498017905E-004
 0.103132588559534E-002
 0.106199482544369E-002
 0.441231125055496E-002
 0.118886834556081E-002
 0.704940590790199E-003
 0.891100260057388E-003
 0.504079822344026E-003
 0.651137849886869E-003
 0.136802116187669E-004
 0.127674914302631E-004
 0.141059202041585E-004
 0.134424848553075E-004
 0.148509938585159E-004
 0.161671492622688E-004
 0.171575035566091E-004
 0.159634244870576E-004
 0.661753250265934E-004
 0.551371814174524E-004
 0.398921009459505E-004
 0.508863416378852E-004
 0.536052470475196E-001
 0.297427851142830E-001
 0.195109765487127E-001
 0.410200257342008E-001
 0.110257515303056E-003
 0.976630568919402E-004
 0.157645745012146E-003
 0.108690019836720E-003
 0.461604492464832E-005
 0.451506911281416E-005
 0.462737090675869E-005
 0.456258990651918E-005
 0.178296420634636E-004
 0.212022456328385E-004
 0.184365182940247E-004
 0.193117615815454E-004
 0.281151822337530E-004
 0.226575894196380E-004
 0.304862024837594E-004
 0.265918099043474E-004
 0.608077204301154E-005
 0.643314082727635E-005
 0.628584682309627E-005
 0.621121353912495E-005
 0.721450911191161E-005
 0.103866211497137E-004
 0.667176450608474E-005
 0.742536045431656E-005
 0.492031122855811E-002
 0.295990016252144E-002
 0.114221835200189E-002
 0.308593750399414E-002
 0.372762859550419E-003
 0.162059489301848E-002
 0.395531956536644E-003
 0.398272291726337E-003
 0.140820428889765E-004
 0.916701074636881E-005
 0.118966453369508E-004
 0.108011973106278E-004
 0.203455866928641E-001
 0.583393271620263E-001
 0.913537960180180E-002
 0.372738887251128E-002
 0.598535521864630E-005
 0.618680971621000E-005
 0.639630554246611E-005
 0.619142524618185E-005
 0.514207607050283E+000
 0.573501792292740E+000
 0.112554963973056E+001
 0.231063197701934E+000
 0.412281711419546E-002
 0.706678690642405E-002
 0.209430197339924E+000
 0.404200594116901E-002
 0.648838217510111E-005
 0.606032768032488E-005
 0.655269173078713E-005
 0.626557372287192E-005
 0.704873136173405E-005
 0.664450017272186E-005
 0.739329757149243E-005
 0.697096785559349E-005
 0.767693495404194E-005
 0.802983795816750E-005
 0.732758747471084E-005
 0.764315213666240E-005
 0.740840912518655E-004
 0.918978826016059E-004
 0.155443534771916E-003
 0.101289773747619E-003
 0.345341537901009E-003
 0.194778705639226E-003
 0.364595494789381E-003
 0.322868165265479E-003
 0.164157137949365E-004
 0.955040787730411E-005
 0.107779225770388E-004
 0.112408200921644E-004
 0.768251633685598E-005
 0.756946348043354E-005
 0.751834407601945E-005
 0.759809822573114E-005
 0.252304893796447E-001
 0.342637775514800E-002
 0.323079382714583E-002
 0.372016258187372E-002
 0.107095842355811E-004
 0.801122536702292E-005
 0.107093262815808E-004
 0.919537728924284E-005
 0.114282001621100E-004
 0.969290873049885E-005
 0.191520626597804E-004
 0.118718216305155E-004
 0.794094027065955E-005
 0.796225544689310E-005
 0.835069969012230E-005
 0.804426572503037E-005
 0.783207511734517E-005
 0.777758414676719E-005
 0.762299723084562E-005
 0.774436322067840E-005
 0.757903476565499E-005
 0.637329573846731E-005
 0.875373451666552E-005
 0.695345833269484E-005
 0.407749588546019E-002
 0.500871170396702E-003
 0.298927756760652E-003
 0.389334545010930E-002
 0.206365417125208E-001
 0.404443058488051E-002
 0.195644011725973E-001
 0.404697598007886E-002
 0.130351528036244E-001
 0.254980659800154E-001
 0.374366641220758E-001
 0.776910639191514E-001
 0.259697820475697E-002
 0.100644329453984E-002
 0.935170515386296E-005
 0.617306184797561E-003
 0.280282029364718E+000
 0.107364824455852E+000
 0.764313301500019E-001
 0.699379636532206E-001
 0.600437360125240E-001
 0.264345783610276E+000
 0.414538157347282E-001
 0.101309935253565E+000
 0.299669076956252E-003
 0.299125818665224E-003
 0.378089540030236E-002
 0.453729744194518E-002
 0.866233296356682E-005
 0.847692387956525E-005
 0.787314726122101E-005
 0.823861230512867E-005
 0.912117602646985E-004
 0.589249190190772E-004
 0.724049118574984E-004
 0.750845997542939E-004
 0.741773194528706E-005
 0.746988574719191E-005
 0.724407451087017E-005
 0.732669982310564E-005
 0.872415682774353E-005
 0.784996220491516E-005
 0.772680712769161E-005
 0.783153893307638E-005
 0.388183155208735E-003
 0.303679865343798E-003
 0.632672609724432E-002
 0.486555589251022E-002
 0.311376922909681E-003
 0.112604028646398E-003
 0.462118598604232E-002
 0.112391447770348E-003
 0.225784305913050E-002
 0.363674766405059E-001
 0.460694718953988E-002
 0.219208570709051E-001
 0.290436392254492E-002
 0.162693139210737E-002
 0.386331370416306E-002
 0.181608185195945E-002
 0.752470239323610E-002
 0.419649323574059E-003
 0.741207132515998E-003
 0.455230570848048E-003
 0.326534901051361E-002
 0.360447032498299E-003
 0.470939368644108E-003
 0.177821894207435E-002
 0.264578602353987E+000
 0.129894379510574E-001
 0.363941287850500E+000
 0.482707907125724E+000
 0.742973145671651E-005
 0.708429810566296E-005
 0.711392916319918E-005
 0.723030932216629E-005
 0.104821613985633E-001
 0.137953558901741E+000
 0.477941892688356E+000
 0.110134439136844E-001
 0.338136906637670E-004
 0.499725752322407E-004
 0.193943220859961E-004
 0.279340083361092E-004
 0.175008218215102E-004
 0.161500099825289E-004
 0.193008747896262E-004
 0.173449193555181E-004
 0.380104000275705E-004
 0.458832392717929E-004
 0.613275377994163E-004
 0.481076766765268E-004
 0.357705642867084E-002
 0.641380711777681E-002
 0.278537351030004E-002
 0.442669530672847E-002
 0.361546560842748E-004
 0.336361463134513E-004
 0.455310612155441E-004
 0.369010665604005E-004
 0.836735268022101E-002
 0.596404968549938E-001
 0.150641199416627E-001
 0.144616448248287E-001
 0.341692630006991E-001
 0.308424948561274E-001
 0.262002410778308E-001
 0.240312755257965E-001
 0.416500685402901E-002
 0.206350112632139E-001
 0.246129207621641E-002
 0.471975799732674E-002
 0.429964854509336E-003
 0.112079117650961E-002
 0.577383901980220E-003
 0.598547812098353E-003
 0.250358841647435E-003
 0.131300409439833E-001
 0.236042438577908E-002
 0.126351720019349E-002
 0.849078057250569E-004
 0.722879642485233E-004
 0.143438496682274E-003
 0.838228485612277E-004
 0.852720832711343E-005
 0.800010973901624E-005
 0.971465401166313E-005
 0.837151951111066E-005
 0.145467319044973E-001
 0.423963601327666E-002
 0.303779133123441E-002
 0.169165113754468E-002
 0.548337146297055E-002
 0.814900038910327E-002
 0.257257584053218E+000
 0.109597896112415E-001
 0.249029387524884E-002
 0.324711543177360E-002
 0.348621706246309E-002
 0.355816118293009E-002
 0.393310961027643E-003
 0.897713133202980E-004
 0.129690008360134E-003
 0.145704306327376E-003
 0.816934132093037E-003
 0.507702983344023E-003
 0.244186393647761E-002
 0.659173602081475E-003
 0.902894700044242E-002
 0.497695822101849E-001
 0.269974973605020E+001
 0.646479143449133E-001
 0.115362714256183E-002
 0.127660687401447E-002
 0.164390060090361E-002
 0.156062884519519E-002
 0.257118949126449E-002
 0.732523187666433E-002
 0.262157393662302E-002
 0.275521160341462E-002
 0.644759898593323E-002
 0.732249443034995E-004
 0.206137048112035E-002
 0.204105620815102E-002
 0.129836930195824E-004
 0.920431843656919E-005
 0.147325848586706E-004
 0.117227767409000E-004
 0.788374996340490E-005
 0.727373407936131E-005
 0.822617689881151E-005
 0.775144589526735E-005
 0.519307504526536E-001
 0.188096781125201E-001
 0.643655654314358E+000
 0.483426702736865E-001
 0.924455337133765E-003
 0.395537966808536E-003
 0.984572974254864E-003
 0.106489296975668E-002
 0.870115203724740E-002
 0.520048653023188E-002
 0.134628274923199E+000
 0.513167712770925E-002
 0.346763451663650E-003
 0.575594641645444E-003
 0.913958850273405E-003
 0.683438078580106E-003
 0.109880614514225E-001
 0.346854336478802E-003
 0.184232504773736E-002
 0.382260387946733E-002
 0.178727268984079E-003
 0.117360939033567E-003
 0.548687153850339E-003
 0.168149116095708E-003
 0.145367463413210E-002
 0.350991831212367E-003
 0.796791112212530E-002
 0.512856275784713E-002
 0.106734441148422E-002
 0.128694469695312E-002
 0.196546663275056E-002
 0.256509595551141E-002
 0.180391421032896E-004
 0.486797083183977E-004
 0.860633231155601E-004
 0.416442022671736E-004
 0.145164267066357E-001
 0.223830694696868E-001
 0.436883879080257E+000
 0.195487576073179E-001
 0.124937928255610E-003
 0.263926227031435E-003
 0.211017288726554E-003
 0.193400666201567E-003
 0.118465330114015E-002
 0.203516020643555E-002
 0.447991702503352E-002
 0.222512753410509E-002
 0.779404571956356E-002
 0.250020354620039E+000
 0.412649923883277E-001
 0.618715554633679E-003
 0.393548544011671E-004
 0.257862364020157E-004
 0.296809583208126E-004
 0.313220665090077E-004
 0.290379307419866E-002
 0.208075785956823E-002
 0.166655618001153E-002
 0.162732566722560E-002
 0.103283276532729E-001
 0.157920145760941E+000
 0.217252916802784E+000
 0.147184776330113E+000
 0.475917313438494E-002
 0.695682571105602E-002
 0.197451376449461E+001
 0.938870725036702E-002
 0.123761930523885E-002
 0.994322610824150E-003
 0.524729930066521E-003
 0.742128009149303E-003
 0.783633797139204E-004
 0.740719295322031E-004
 0.174682282965590E-004
 0.346075210385319E-004
 0.390507061233076E+000
 0.183355525487069E+000
 0.512206110584858E-001
 0.980333068620656E-001
 0.719876620754679E-005
 0.763110270396378E-005
 0.770645077116231E-005
 0.746222143827675E-005
 0.814579016249199E-005
 0.898114879929059E-005
 0.790099904237899E-005
 0.830390323631896E-005
 0.237374494104870E-002
 0.133515608801532E-001
 0.731421888626907E-002
 0.120112453322525E-001
 0.827667400338988E-005
 0.798772847672286E-005
 0.798339118013495E-005
 0.807909274290440E-005
 0.148587189116201E-002
 0.246072665505169E-002
 0.209570055668156E-002
 0.262542471919174E-002
 0.115768025708616E-001
 0.909578285032234E-001
 0.794092251757068E-001
 0.115364372926784E+000
 0.249942377706966E+000
 0.248945066661032E+000
 0.314549515813486E-002
 0.200504065143770E+000
 0.258616849516711E-003
 0.437601001582050E-003
 0.422688250629263E-002
 0.830569698860848E-002
 0.507465031039041E-003
 0.883043144120019E-003
 0.102218978563127E-002
 0.118342915028863E-002
 0.456078973190859E-003
 0.207958598321194E-003
 0.389742424783644E-003
 0.360999778470223E-003
 0.149195929118572E-003
 0.228597293432729E-003
 0.269634934913605E-003
 0.223240452896364E-003
 0.119732680183301E-002
 0.223714968850530E-002
 0.528092592610040E-002
 0.221655650197554E-002
 0.503238033999178E-004
 0.511727361921764E-004
 0.665570892187493E-004
 0.530973516868086E-004
 0.357913260894544E-004
 0.353602650660804E-004
 0.504725683542693E-004
 0.380344375450472E-004
 0.570706087260764E-001
 0.691487672095497E-002
 0.837761014579745E-002
 0.137328490095485E-001
 0.269643658426972E-002
 0.641081119953262E-003
 0.850367154487560E-003
 0.848589243245058E-003
 0.138579571282459E-003
 0.360625226359968E-003
 0.297729041278185E-003
 0.264705167373394E-003
 0.113389911690048E-002
 0.231302127138270E-002
 0.313560182362292E-002
 0.355153423790163E-002
 0.722415951580179E+000
 0.485045506809927E-001
 0.609049068018116E+000
 0.383678575745033E+000
 0.671727676684952E+000
 0.496921790898289E+000
 0.143043549446191E-001
 0.486494565402972E+000
 0.369904606526596E-003
 0.481726579477848E-003
 0.106020454077632E-002
 0.497613657583871E-003
 0.164491385724770E-002
 0.640818838843394E-003
 0.266664395742213E-002
 0.172377041111483E-002
 0.212217895746065E-004
 0.200461489078171E-004
 0.248523538770654E-004
 0.216204486466083E-004
 0.337858242541574E-004
 0.444183820076351E-004
 0.319189515039395E-004
 0.356946868964650E-004
 0.947026664563756E-002
 0.265116270512987E+000
 0.534196826206006E-003
 0.103663620193314E-001
 0.251984372618728E-004
 0.414793395452413E-004
 0.261009472968525E-004
 0.290729354531233E-004
 0.106978230847228E-001
 0.281441478938297E-003
 0.865414422498945E-003
 0.978148189899813E-002
 0.829754299884630E-005
 0.626866775808479E-005
 0.113853090773649E-004
 0.784028830317251E-005
 0.223061932019465E-004
 0.265247143821278E-004
 0.226862288751503E-004
 0.235466632004872E-004
 0.384153887764733E-004
 0.325199212286216E-004
 0.288764970663022E-004
 0.323597060599177E-004
 0.178496552717744E-003
 0.833208306929976E-004
 0.172528987030134E-003
 0.145654078425837E-003
 0.133300537984328E-003
 0.436833365673524E-004
 0.293642041809068E-004
 0.414704302146226E-004
 0.172950319328487E-003
 0.844048862488287E-004
 0.179068137241685E-003
 0.128779704151403E-003
 0.149065864564657E-003
 0.705650765828006E-004
 0.694456017635284E-004
 0.796639744699401E-004
 0.904023858512898E-005
 0.901098239400230E-005
 0.109726249072627E-004
 0.944324870040503E-005
 0.190598981597382E-003
 0.103740028590915E-003
 0.164187507685615E-003
 0.161921470066122E-003
 0.486715443067561E-004
 0.483417505135046E-004
 0.341653546265224E-004
 0.431284779871264E-004
 0.190212719839839E-004
 0.254309444291498E-004
 0.239577888560767E-004
 0.226318122638344E-004
 0.693841941936315E-003
 0.386824655856911E-003
 0.650430897906027E-003
 0.613341577604413E-003
 0.210926810685889E-004
 0.277303057851361E-004
 0.265595803464125E-004
 0.248614829306491E-004
 0.202424486901279E-003
 0.126228346841366E-003
 0.175709291771318E-003
 0.181010668256888E-003
 0.258750877699294E-004
 0.229247154131938E-004
 0.217276106168038E-004
 0.234011665499858E-004
 0.104587478324104E-002
 0.897359938408772E-003
 0.204636858461281E-002
 0.131448619633963E-002
 0.671325545035510E-004
 0.976451923457406E-004
 0.561087085276169E-004
 0.679664014634546E-004
 0.111555828646963E-002
 0.458778443824505E-003
 0.103857617079536E-002
 0.106337757504979E-002
 0.216951022030119E-001
 0.378316630863959E-002
 0.278471269328115E+000
 0.174542791367647E-001
 0.359222528507882E-003
 0.617647576170165E-003
 0.410528979959034E-003
 0.459800577745004E-003
 0.988894301789369E-004
 0.180481219253266E-003
 0.619692966760633E-004
 0.876811309026051E-004
 0.591691740959344E-002
 0.776492995993952E-001
 0.800251492421572E-001
 0.448942289429569E-001
 0.957503093160264E-004
 0.766332950387613E-004
 0.572056561915124E-004
 0.767689850928753E-004
 0.266380477661437E-003
 0.504316738747293E-003
 0.570249324950937E-003
 0.477661981478209E-003
 0.103742003373930E-004
 0.143347740729552E-004
 0.219272843019536E-004
 0.136275013133175E-004
 0.310565283844036E-004
 0.334850683032140E-004
 0.387937596289481E-004
 0.351066545008278E-004
 0.592433927307330E-005
 0.537327680147300E-005
 0.581895540162850E-005
 0.570486274378659E-005
 0.419917507305967E-003
 0.220556414858379E-003
 0.197036770552029E-003
 0.231187695851904E-003
 0.187247254135196E-004
 0.106492406221608E-004
 0.127806540222177E-004
 0.134205216836851E-004
 0.187919009685730E-003
 0.154280799951531E-003
 0.273634908430492E-003
 0.175000770183786E-003
 0.325530517750349E-004
 0.350492417485946E-004
 0.424568893476070E-004
 0.360127707733425E-004
 0.565448220897088E-005
 0.590753573604497E-005
 0.702517581523906E-005
 0.620219682011510E-005
 0.124460453217396E-003
 0.148172267306228E-003
 0.321523729625988E-003
 0.164761941100247E-003
 0.133228930757303E-003
 0.154614936025312E-003
 0.975442969594632E-004
 0.122203643754214E-003
 0.275331695100888E-003
 0.285488778384837E-003
 0.195903843222771E-003
 0.302760399023625E-003
 0.439238777956042E-004
 0.391583798952255E-004
 0.429625630480361E-004
 0.411920772124338E-004
 0.166495084100589E-004
 0.184620250854398E-004
 0.201316336740638E-004
 0.184372673761178E-004
 0.250476772044816E-003
 0.288534469611142E-004
 0.543636297888544E-004
 0.461017524205158E-004
 0.328752422624315E-004
 0.394231139911058E-004
 0.367860648388192E-004
 0.355950220632382E-004
 0.128169002676368E-003
 0.236562972229314E-003
 0.302793218033215E-003
 0.219666313004747E-003
 0.116205039377845E-004
 0.142388187027410E-004
 0.120214959704534E-004
 0.126565967795632E-004
 0.420604613073988E-004
 0.394709825563677E-004
 0.432035787619827E-004
 0.416031982962229E-004
 0.247872702557113E-004
 0.300529169690647E-004
 0.291090877136100E-004
 0.271387962479773E-004
 0.386396985627487E-004
 0.628307252628305E-004
 0.563139504290142E-004
 0.542588232948180E-004
 0.156394777344575E-003
 0.120902028766167E-003
 0.285171807388806E-003
 0.165781498398775E-003
 0.450039747186673E-004
 0.632418610338560E-004
 0.368958288394311E-004
 0.452504091560393E-004
 0.378970406243729E-004
 0.519808788648846E-004
 0.458461909209187E-004
 0.445619766256972E-004
 0.906131732044472E-004
 0.112963336124695E-003
 0.747476232168361E-004
 0.888927363014037E-004
 0.158295032423887E-003
 0.906345977558658E-003
 0.307738665946577E-003
 0.410896112480420E-003
 0.593059066472667E-001
 0.104472668782917E-001
 0.600498869329289E-002
 0.749959012899376E-002
 0.246407068659407E-004
 0.269962997979244E-004
 0.206921767327734E-004
 0.242935952929915E-004
 0.417654734596247E-004
 0.336408115749896E-004
 0.440960241238539E-004
 0.399868967188431E-004
 0.178868369755632E-004
 0.223938935856611E-004
 0.190443656256549E-004
 0.194023478754153E-004
 0.305938958787965E-004
 0.374256297336771E-004
 0.283569686270712E-004
 0.316640132164211E-004
 0.103516124973261E-004
 0.113654414109835E-004
 0.112463922608205E-004
 0.108327737160825E-004
 0.145834554066980E-004
 0.144646876412095E-004
 0.165490139161726E-004
 0.152024373457200E-004
 0.127420809031017E+001
 0.103630027064660E+001
 0.143425189428831E-001
 0.101488136502402E+001
 0.102346650925279E-002
 0.277988609139153E-002
 0.221438680841631E-002
 0.266694430578496E-002
 0.813777667214111E-004
 0.568831377694855E-004
 0.945195931644795E-004
 0.759745516330541E-004
 0.883897331700270E-004
 0.537129827128375E-004
 0.565736312864911E-004
 0.604137022137876E-004
 0.565569630332986E-004
 0.497650810600853E-004
 0.701651162838814E-004
 0.557325570390441E-004
 0.190429300119251E-002
 0.159955309154176E-002
 0.842104191483734E-003
 0.134808038744684E-002
 0.201578018039633E-002
 0.146052549670843E-003
 0.124919819846275E-003
 0.498783920818765E-003
 0.118363704362056E-004
 0.115002621751456E-004
 0.978200929020104E-005
 0.109301785840083E-004
 0.105977162658843E-002
 0.735743079333411E-001
 0.938336334199199E-002
 0.142159765125661E-001
 0.798566838774704E-005
 0.866044605068883E-005
 0.612435746852889E-005
 0.715118386616760E-005
 0.115920882546206E-004
 0.236910141986087E-004
 0.245768013857414E-004
 0.184269187571470E-004
 0.149736594391472E-004
 0.204816172687926E-004
 0.230025547942458E-004
 0.190092361911907E-004
 0.628516248961010E-002
 0.678279420487209E-004
 0.596199203588830E-003
 0.626295738689049E-003
 0.525231624253921E-005
 0.476058831537257E-005
 0.546260612322625E-005
 0.504148237980153E-005
 0.814665647467507E-005
 0.636125773673886E-005
 0.570109161982685E-005
 0.666666620330742E-005
 0.140104150452801E-004
 0.168888201638844E-004
 0.179144505404400E-004
 0.160718066327862E-004
 0.646562348330553E-005
 0.794921954095563E-005
 0.771580810143179E-005
 0.721844668458867E-005
 0.123184089445079E-004
 0.100113424125469E-004
 0.221889896666401E-004
 0.129895057313535E-004
 0.139056324089788E-004
 0.151577579314483E-004
 0.161721339734173E-004
 0.149053533883580E-004
 0.465531476274433E-005
 0.467269666396744E-005
 0.493223004008381E-005
 0.472740010045909E-005
 0.181270548145643E-004
 0.159613484312433E-004
 0.165925756097590E-004
 0.170112074349644E-004
 0.252924341169913E-002
 0.378432792562634E-003
 0.215684802505473E-001
 0.349352472615599E-002
 0.186038615343843E-004
 0.368938785447937E-004