# vtk DataFile Version 3.0
Unstructured Grid
ASCII
DATASET UNSTRUCTURED_GRID
FIELD FieldData 1
TIME 1 1 float
  0.349931E+02
POINTS         1241 double
 0.000000000000000E+000 0.000000000000000E+000 0.000000000000000E+000
 0.100000000000000E+001 0.000000000000000E+000 0.000000000000000E+000
 0.100000000000000E+001 0.100000000000000E+001 0.000000000000000E+000
 0.000000000000000E+000 0.100000000000000E+001 0.000000000000000E+000
 0.125000000000000E+000 0.250000000000000E+000 0.000000000000000E+000
 0.375000000000000E+000 0.250000000000000E+000 0.000000000000000E+000
 0.375000000000000E+000 0.750000000000000E+000 0.000000000000000E+000
 0.125000000000000E+000 0.750000000000000E+000 0.000000000000000E+000
 0.625000000000000E+000 0.250000000000000E+000 0.000000000000000E+000
 0.875000000000000E+000 0.250000000000000E+000 0.000000000000000E+000
 0.875000000000000E+000 0.750000000000000E+000 0.000000000000000E+000
 0.625000000000000E+000 0.750000000000000E+000 0.000000000000000E+000
 0.100000000000000E+001 0.500000000000000E+000 0.000000000000000E+000
 0.000000000000000E+000 0.500000000000000E+000 0.000000000000000E+000
 0.500000000000000E+000 0.000000000000000E+000 0.000000000000000E+000
 0.125000000000000E+000 0.500000000000000E+000 0.000000000000000E+000
 0.000000000000000E+000 0.750000000000000E+000 0.000000000000000E+000
 0.000000000000000E+000 0.250000000000000E+000 0.000000000000000E+000
 0.000000000000000E+000 0.875000000000000E+000 0.000000000000000E+000
 0.308529810216860E+000 0.500255759132561E+000 0.000000000000000E+000
 0.250000000000000E+000 0.000000000000000E+000 0.000000000000000E+000
 0.125000000000000E+000 0.375000000000000E+000 0.000000000000000E+000
 0.125000000000000E+000 0.625000000000000E+000 0.000000000000000E+000
 0.000000000000000E+000 0.375000000000000E+000 0.000000000000000E+000
 0.000000000000000E+000 0.437500000000000E+000 0.000000000000000E+000
 0.625000000000000E-001 0.406250000000000E+000 0.000000000000000E+000
 0.125000000000000E+000 0.437500000000000E+000 0.000000000000000E+000
 0.216796875000000E+000 0.382812500000000E+000 0.000000000000000E+000
 0.183593750000000E+000 0.468750000000000E+000 0.000000000000000E+000
 0.375000000000000E+000 0.500000000000000E+000 0.000000000000000E+000
 0.250000000000000E+000 0.468750000000000E+000 0.000000000000000E+000
 0.625000000000000E-001 0.481770833333333E+000 0.000000000000000E+000
 0.184176834650379E+000 0.540399924344460E+000 0.000000000000000E+000
 0.216796875000000E+000 0.432195490056818E+000 0.000000000000000E+000
 0.168571309840426E+000 0.406250000000000E+000 0.000000000000000E+000
 0.125000000000000E+000 0.687500000000000E+000 0.000000000000000E+000
 0.255828208111702E+000 0.540763692652926E+000 0.000000000000000E+000
 0.375000000000000E+000 0.375000000000000E+000 0.000000000000000E+000
 0.375000000000000E+000 0.625000000000000E+000 0.000000000000000E+000
 0.220170948184400E+000 0.507406813570504E+000 0.000000000000000E+000
 0.219557967718869E+000 0.628145457476636E+000 0.000000000000000E+000
 0.125000000000000E+000 0.562500000000000E+000 0.000000000000000E+000
 0.000000000000000E+000 0.625000000000000E+000 0.000000000000000E+000
 0.375000000000000E+000 0.437500000000000E+000 0.000000000000000E+000
 0.280323303380492E+000 0.407503995028409E+000 0.000000000000000E+000
 0.375000000000000E+000 0.562500000000000E+000 0.000000000000000E+000
 0.219817452482738E+000 0.577034793653623E+000 0.000000000000000E+000
 0.885901781235304E-001 0.531250000000000E+000 0.000000000000000E+000
 0.312500000000000E+000 0.250000000000000E+000 0.000000000000000E+000
 0.297268942273640E+000 0.626076494243052E+000 0.000000000000000E+000
 0.168732375746058E+000 0.593750000000000E+000 0.000000000000000E+000
 0.173890458776596E+000 0.343750000000000E+000 0.000000000000000E+000
 0.183963193611824E+000 0.278873942859495E+000 0.000000000000000E+000
 0.250000000000000E+000 0.250000000000000E+000 0.000000000000000E+000
 0.237162500098357E+000 0.317347265649589E+000 0.000000000000000E+000
 0.250000000000000E+000 0.750000000000000E+000 0.000000000000000E+000
 0.292902283271084E+000 0.575476271929907E+000 0.000000000000000E+000
 0.125000000000000E+000 0.312500000000000E+000 0.000000000000000E+000
 0.585937500000000E-001 0.335937500000000E+000 0.000000000000000E+000
 0.000000000000000E+000 0.312500000000000E+000 0.000000000000000E+000
 0.336992576921227E+000 0.687500000000000E+000 0.000000000000000E+000
 0.312500000000000E+000 0.750000000000000E+000 0.000000000000000E+000
 0.270599706447422E+000 0.686880677247748E+000 0.000000000000000E+000
 0.500000000000000E+000 0.100000000000000E+001 0.000000000000000E+000
 0.250000000000000E+000 0.100000000000000E+001 0.000000000000000E+000
 0.375000000000000E+000 0.100000000000000E+001 0.000000000000000E+000
 0.281250000000000E+000 0.830729166666667E+000 0.000000000000000E+000
 0.343750000000000E+000 0.312500000000000E+000 0.000000000000000E+000
 0.318389033445014E+000 0.364242983277493E+000 0.000000000000000E+000
 0.267787317245899E+000 0.358095790057897E+000 0.000000000000000E+000
 0.289796410792034E+000 0.300414294603983E+000 0.000000000000000E+000
 0.274503756719177E+000 0.737152390322435E-001 0.000000000000000E+000
 0.343750000000000E+000 0.183159722222222E+000 0.000000000000000E+000
 0.246744791666667E+000 0.146267361111111E+000 0.000000000000000E+000
 0.485980902777778E+000 0.146267361111111E+000 0.000000000000000E+000
 0.302262721771688E+000 0.146267361111111E+000 0.000000000000000E+000
 0.274503756719177E+000 0.197313658770435E+000 0.000000000000000E+000
 0.375000000000000E+000 0.000000000000000E+000 0.000000000000000E+000
 0.420862160086615E+000 0.187832617434252E+000 0.000000000000000E+000
 0.384683294119816E+000 0.146267361111111E+000 0.000000000000000E+000
 0.330565923051619E+000 0.413335216176427E+000 0.000000000000000E+000
 0.352621063931298E+000 0.818811625318066E+000 0.000000000000000E+000
 0.312179705605879E+000 0.796288985503351E+000 0.000000000000000E+000
 0.500000000000000E+000 0.828697389616904E+000 0.000000000000000E+000
 0.427559261986282E+000 0.805138192500353E+000 0.000000000000000E+000
 0.399035374849065E+000 0.860999763838749E+000 0.000000000000000E+000
 0.312500000000000E+000 0.000000000000000E+000 0.000000000000000E+000
 0.187500000000000E+000 0.820606518817204E+000 0.000000000000000E+000
 0.466707069430364E+000 0.898575881689250E+000 0.000000000000000E+000
 0.511172798160702E+000 0.257526753061783E+000 0.000000000000000E+000
 0.453250172578119E+000 0.849294180402265E+000 0.000000000000000E+000
 0.937500000000000E-001 0.504496261452806E-001 0.000000000000000E+000
 0.403162177800535E+000 0.933291523780214E+000 0.000000000000000E+000
 0.437500000000000E+000 0.100000000000000E+001 0.000000000000000E+000
 0.312500000000000E+000 0.934315683855312E+000 0.000000000000000E+000
 0.453353205989905E+000 0.949647808263675E+000 0.000000000000000E+000
 0.358054120979715E+000 0.953547171775243E+000 0.000000000000000E+000
 0.325154404090345E+000 0.873991089312954E+000 0.000000000000000E+000
 0.367644435624882E+000 0.899055397729593E+000 0.000000000000000E+000
 0.236990017361111E+000 0.801449092741935E+000 0.000000000000000E+000
 0.443167922913219E+000 0.252288460541578E+000 0.000000000000000E+000
 0.477263196714215E+000 0.204401840413902E+000 0.000000000000000E+000
 0.562394794036017E+000 0.187447086349591E+000 0.000000000000000E+000
 0.625000000000000E+000 0.375000000000000E+000 0.000000000000000E+000
 0.407024191230044E+000 0.312500000000000E+000 0.000000000000000E+000
 0.474084945258901E+000 0.294963270028168E+000 0.000000000000000E+000
 0.216342369774119E+000 0.930487241414522E-001 0.000000000000000E+000
 0.157072243143605E+000 0.162201579117130E+000 0.000000000000000E+000
 0.187500000000000E+000 0.000000000000000E+000 0.000000000000000E+000
 0.174352819470591E+000 0.117036261141583E+000 0.000000000000000E+000
 0.125000000000000E+000 0.000000000000000E+000 0.000000000000000E+000
 0.218750000000000E+000 0.413079239859885E-001 0.000000000000000E+000
 0.131982343008202E+000 0.962324019836500E-001 0.000000000000000E+000
 0.866442243142230E-001 0.109366815743071E+000 0.000000000000000E+000
 0.000000000000000E+000 0.125000000000000E+000 0.000000000000000E+000
 0.156250000000000E+000 0.557461246091935E-001 0.000000000000000E+000
 0.343473007945752E+000 0.889135573360382E-001 0.000000000000000E+000
 0.316206161479800E+000 0.485604570335434E-001 0.000000000000000E+000
 0.430629647389619E+000 0.697713778434944E-001 0.000000000000000E+000
 0.391175490408355E+000 0.981202752650288E-001 0.000000000000000E+000
 0.444501950008550E+000 0.736368377006958E+000 0.000000000000000E+000
 0.398829470438439E+000 0.687500000000000E+000 0.000000000000000E+000
 0.513688817046671E+000 0.757625009132424E+000 0.000000000000000E+000
 0.625000000000000E+000 0.500000000000000E+000 0.000000000000000E+000
 0.473588841595499E+000 0.786756047776317E+000 0.000000000000000E+000
 0.478860669310979E+000 0.411527234375853E+000 0.000000000000000E+000
 0.572911532233985E+000 0.805885984489640E+000 0.000000000000000E+000
 0.447298813474571E+000 0.682006891579307E+000 0.000000000000000E+000
 0.504019394669429E+000 0.534902916754864E+000 0.000000000000000E+000
 0.486274863958833E+000 0.352843653662708E+000 0.000000000000000E+000
 0.551332894747653E+000 0.390873360445252E+000 0.000000000000000E+000
 0.433027718644055E+000 0.375926460599989E+000 0.000000000000000E+000
 0.437992666628316E+000 0.468750000000000E+000 0.000000000000000E+000
 0.421394775819071E+000 0.423093236096220E+000 0.000000000000000E+000
 0.501785840486804E+000 0.471105361968983E+000 0.000000000000000E+000
 0.433650269193003E+000 0.539110962574808E+000 0.000000000000000E+000
 0.559767288621728E+000 0.501013305633588E+000 0.000000000000000E+000
 0.473047166828055E+000 0.607447789310414E+000 0.000000000000000E+000
 0.551301338206151E+000 0.446268697831009E+000 0.000000000000000E+000
 0.625000000000000E+000 0.625000000000000E+000 0.000000000000000E+000
[...]
CELL_DATA         2368
SCALARS tdens double 1
LOOKUP_TABLE default
 0.329773526460007E-007
 0.648273388760778E-007
 0.186196164241200E-007
 0.371993961805135E-007
 0.717543096374931E-008
 0.842146460949266E-008
 0.779608673005702E-008
 0.776473326781481E-008
 0.253481008266049E-001
 0.902489027744324E-001
 0.281184600864962E-002
 0.729410786494421E-001
 0.230234860099875E+001
 0.340895619191087E-003
 0.243914475234136E+001
 0.294781514594116E-003
 0.144425797535699E-005
 0.679142008940108E-006
 0.945414962217754E-006
 0.100643422167352E-005
 0.278418771351254E-008
 0.262579912891583E-008
 0.265294779802407E-008
 0.268892254213140E-008
 0.136426702339752E-007
 0.542368172692700E-007
 0.313713557914867E-007
 0.236534082893523E-007
 0.655000115661235E-006
 0.672850184210836E-006
 0.325315856278744E-005
 0.750921198565725E-006
 0.438653000528403E-006
 0.545030378207125E-006
 0.304575971252307E-006
 0.402117352247808E-006
 0.771712059724761E-008
 0.719749440103425E-008
 0.796049220564074E-008
 0.758172309170694E-008
 0.838275025663607E-008
 0.912777566429205E-008
 0.969778177284414E-008
 0.901608046383873E-008
 0.379794581250004E-007
 0.317934395768571E-007
 0.227918088979914E-007
 0.292182872889799E-007
 0.204237433860718E-002
 0.483474519619055E-001
 0.249236327369497E-003
 0.385224583635489E-002
 0.627506012230837E-007
 0.554884446838736E-007
 0.897538569204408E-007
 0.617646206998032E-007
 0.258502998821703E-008
 0.252822218184149E-008
 0.259118328856113E-008
 0.255491352414009E-008
 0.100840970210674E-007
 0.120129028874500E-007
 0.104264904636416E-007
 0.109302509946376E-007
 0.161442781760735E-007
 0.129484410890404E-007
 0.176467676398105E-007
 0.152775078877973E-007
 0.341319881757472E-008
 0.361118797555120E-008
 0.353185175610186E-008
 0.348761518495996E-008
 0.409996349640148E-008
 0.613963544485535E-008
 0.376483477035612E-008
 0.422180410615562E-008
 0.371899224808606E-005
 0.213752181678144E-005
 0.728501977199531E-006
 0.223360812769744E-005
 0.224270088360195E-006
 0.104174807248577E-005
 0.250102727418421E-006
 0.239763118125599E-006
 0.882780403642295E-008
 0.514596169110510E-008
 0.773090695626207E-008
 0.636193027061909E-008
 0.190160235127452E-001
 0.104338582313360E-001
 0.103910908603345E-001
 0.165568316153136E-004
 0.335294890526069E-008
 0.346747484515878E-008
 0.358401014717982E-008
 0.346895667802515E-008
 0.166332301364964E+001
 0.185210273289234E+001
 0.123357613065309E+001
 0.302709061926320E-001
 0.320821079562468E-005
 0.111242284073366E-004
 0.252400425980947E+000
 0.379038402425398E-005
 0.363875929585795E-008
 0.339426331594357E-008
 0.367283623964642E-008
 0.351035481419472E-008
 0.398440304696901E-008
 0.373845333063331E-008
 0.417006696568746E-008
 0.392829202247144E-008
 0.430442308601205E-008
 0.450387059152402E-008
 0.410960746316972E-008
 0.428562926348570E-008
 0.430874302605009E-007
 0.531354059627914E-007
 0.911644755978068E-007
 0.587170293212511E-007
 0.200872806790971E-006
 0.112311099159190E-006
 0.213097849326663E-006
 0.188023830470551E-006
 0.957764900501906E-008
 0.539050134879361E-008
 0.608425725270457E-008
 0.636799621092699E-008
 0.431663312290610E-008
 0.424552520187186E-008
 0.421716814253725E-008
 0.426440544622304E-008
 0.234195389782461E-004
 0.218202160631059E-005
 0.210195248040863E-005
 0.236816310077889E-005
 0.676649760643783E-008
 0.449537549238978E-008
 0.677981866239261E-008
 0.527420329820994E-008
 0.656140043257301E-008
 0.549070763048391E-008
 0.115476638683065E-007
 0.680850693579964E-008
 0.446918606402941E-008
 0.447665134516264E-008
 0.470264508366194E-008
 0.452545012089877E-008
 0.440082607950206E-008
 0.437158291739265E-008
 0.427853557151520E-008
 0.435009576174179E-008
 0.427732577895699E-008
 0.359427944180253E-008
 0.511707073439216E-008
 0.394028588800515E-008
 0.109570666013607E-001
 0.960208389589443E-003
 0.271089611891493E-003
 0.647236135942783E-002
 0.210165327858482E-001
 0.452553110073486E-002
 0.195116061961742E-001
 0.184676760266216E-002
 0.175478096966682E-001
 0.760559631740939E-002
 0.220244625514897E-003
 0.230939924328724E-001
 0.246353682584202E-002
 0.203966110820966E-002
 0.557696931939215E-008
 0.241279296030784E-003
 0.375281507791006E+000
 0.314217227574570E+000
 0.304473443465893E-003
 0.165837457583184E+000
 0.614542969747013E-004
 0.116157210492985E+000
 0.362732983641856E-004
 0.106574043907544E-003
 0.273444194631293E-003
 0.274912324568160E-003
 0.140036131222787E-003
 0.726524599149764E-002
 0.488727613247241E-008
 0.480043631782344E-008
 0.443640891745026E-008
 0.465176896817588E-008
 0.520195640366453E-007
 0.334953937069093E-007
 0.412112337206151E-007
 0.427562946639578E-007
 0.415812726352001E-008
 0.418736014469543E-008
 0.405758888672746E-008
 0.410512055733735E-008
 0.502127048729204E-008
 0.440796329315811E-008
 0.435073216472543E-008
 0.440461490764715E-008
 0.301028413861886E-003
 0.274589479932491E-003
 0.523680963412277E-002
 0.475600584652319E-002
 0.343756910696045E-006
 0.819285765257124E-007
 0.288554406134081E-003
 0.958035983019435E-007
 0.158529120010517E-002
 0.152397957097042E+000
 0.536363650484108E-002
 0.271325442473551E-001
 0.653430002701041E-005
 0.151644045890791E-005
 0.287373809562329E-005
 0.189056455585773E-005
 0.320973268721283E-003
 0.470128352433694E-006
 0.287620691467084E-005
 0.870008557207695E-006
 0.289026022998863E-002
 0.249142906813016E-003
 0.649401284212627E-006
 0.133784184813543E-002
 0.191981611185018E+000
 0.134910911504948E-004
 0.587864056486946E+000
 0.386684388374260E+000
 0.416410780753977E-008
 0.397151794883125E-008
 0.398474674427493E-008
 0.405129417693500E-008
 0.908152720425426E-005
 0.111760596300589E-002
 0.408971050870030E+000
 0.858365753438115E-005
 0.203649133500954E-007
 0.305699858702066E-007
 0.114938841316643E-007
 0.165397693956515E-007
 0.100172604493526E-007
 0.919905331482940E-008
 0.110592175202066E-007
 0.990378467254006E-008
 0.216683834206586E-007
 0.261276950165067E-007
 0.350988980567149E-007
 0.274322350752065E-007
 0.241863626210521E-005
 0.490550534605661E-005
 0.186545717559926E-005
 0.308811180132961E-005
 0.204948460945666E-007
 0.190589198063022E-007
 0.258554249755598E-007
 0.209140831145938E-007
 0.117891552014069E-003
 0.276062801075312E+000
 0.660495007256835E-004
 0.416239818565427E-004
 0.274024194243183E-001
 0.152333140171669E-002
 0.486654027999140E-001
 0.100924738698211E-002
 0.360968259690976E-005
 0.302401762194236E-004
 0.248609007739818E-005
 0.397428345688444E-005
 0.272888602327880E-006
 0.722059655465303E-006
 0.355121344318736E-006
 0.370791320244328E-006
 0.172880246125061E-006
 0.193969145368183E-001
 0.149089221035765E-002
 0.398652121505583E-003
 0.587784506057534E-007
 0.455262906563188E-007
 0.100255280411853E-006
 0.561028580690275E-007
 0.478464692215338E-008
 0.448762176837423E-008
 0.560858084549070E-008
 0.469767242082220E-008
 0.358888439515511E-004
 0.143822693162189E-004
 0.510537850053249E-005
 0.407569681967853E-005
 0.408188234562306E-005
 0.583662796648996E-005
 0.221207187139127E-002
 0.886607039248966E-005
 0.191610405166706E-005
 0.322515519254444E-005
 0.281174563610640E-005
 0.302198518148635E-005
 0.347116694753364E-006
 0.700802784845053E-007
 0.841753741211408E-007
 0.100585801410128E-006
 0.565215808973385E-006
 0.377429501966740E-006
 0.203494061345111E-005
 0.463590679844434E-006
 0.576886133779611E-005
 0.420463925912576E-004
 0.141595546315995E+001
 0.566279260367931E-004
 0.890044986184950E-006
 0.915300832868904E-006
 0.114805339204601E-005
 0.112627832619525E-005
 0.361236089264562E-005
 0.108033744880230E-004
 0.206395315371386E-005
 0.267424862944548E-005
 0.171146326110124E-001
 0.508089184746319E-007
 0.273675723559281E-003
 0.248931907139353E-002
 0.751774502875725E-008
 0.520765181118117E-008
 0.846721076344180E-008
 0.670441587818145E-008
 0.443221133529539E-008
 0.408192363970287E-008
 0.461511015529326E-008
 0.435235614895127E-008
 0.683472924079998E-004
 0.152226221741648E-004
 0.165115016801282E+001
 0.595893859811297E-004
 0.569934717535204E-006
 0.235724881164624E-006
 0.598506474621627E-006
 0.657232033269840E-006
 0.808886176025185E-005
 0.464947696273331E-005
 0.127880515407735E+000
 0.447769108451260E-005
 0.272239243570652E-006
 0.477601409472188E-006
 0.691152660077681E-006
 0.537836635157602E-006
 0.151099058286022E-001
 0.252436277217536E-006
 0.216831622849305E-002
 0.500678694986372E-002
 0.124999855255810E-006
 0.702951936440113E-007
 0.491695857605068E-006
 0.113587153301451E-006
 0.144493686463238E-005
 0.276929020627035E-006
 0.239312262298495E-002
 0.849158520301539E-005
 0.755946059227758E-006
 0.903605821987397E-006
 0.128415733894142E-005
 0.177010649288522E-005
 0.106531763491984E-007
 0.326729301074000E-007
 0.601976373522444E-007
 0.271525764882328E-007
 0.108552378941339E-004
 0.171252840622327E-004
 0.318818234428822E+000
 0.143786084096648E-004
 0.720231988132810E-007
 0.153022582583654E-006
 0.123043507909477E-006
 0.112509018248172E-006
 0.699691303014310E-006
 0.123049206959235E-005
 0.279258722353980E-005
 0.134327643108143E-005
 0.926456291053808E-002
 0.188212477809270E+000
 0.239732878445334E+000
 0.530318295409049E-006
 0.231242210803114E-007
 0.148740991792109E-007
 0.170683860693106E-007
 0.181508556838430E-007
 0.236440538701484E-005
 0.199100241861106E-005
 0.145362017692944E-005
 0.142909511320717E-005
 0.145655215998497E-002
 0.218834894387795E+000
 0.434284582096417E+000
 0.224853730311224E+000
 0.320330385822722E-005
 0.443606539487156E-005
 0.206516806085465E+001
 0.634838833928361E-005
 0.944956613477529E-006
 0.842535352961736E-006
 0.459486044266364E-006
 0.615477391174270E-006
 0.495909766454893E-007
 0.474958689552404E-007
 0.101980865209047E-007
 0.206938441820214E-007
 0.112266751048406E+001
 0.187925776032453E-001
 0.115171674569129E-001
 0.417034299186697E-002
 0.403881877002611E-008
 0.428023954871948E-008
 0.432637627778372E-008
 0.418679086472469E-008
 0.456783305125942E-008
 0.504252657419626E-008
 0.443616102405435E-008
 0.466054038900844E-008
 0.255851388697947E-005
 0.153034340582861E-004
 0.875967689403462E-005
 0.172413390319793E-004
 0.465609932605693E-008
 0.449046800177608E-008
 0.448632061915204E-008
 0.454222439998611E-008
 0.118361852961457E-005
 0.189555273131189E-005
 0.163717199267350E-005
 0.211704132058631E-005
 0.111020428357886E-004
 0.524991457884268E+000
 0.204753320548868E-001
 0.224243883590335E-001
 0.508337268647992E+000
 0.565839121176739E+000
 0.217347460601206E-005
 0.246889561962429E+000
 0.246476243275438E-003
 0.123088802935229E-002
 0.226407137182046E-001
 0.928930914163868E-002
 0.497692737796530E-006
 0.801408723448982E-006
 0.117521358380429E-005
 0.135524589941669E-005
 0.276320796280926E-006
 0.122793089442554E-006
 0.233895617284844E-006
 0.217315022009990E-006
 0.880798363895391E-007
 0.136513966068552E-006
 0.161045482148594E-006
 0.133198126138596E-006
 0.761272922357605E-006
 0.148149847038325E-005
 0.390970333782493E-005
 0.149071194156173E-005
 0.289604362086523E-007
 0.294597829687803E-007
 0.384966463216161E-007
 0.305745816555720E-007
 0.205622795203442E-007
 0.203672100842131E-007
 0.291476311276065E-007
 0.218672437982853E-007
 0.630562947044916E-001
 0.239514383251851E-001
 0.827079183718129E-002
 0.104629308278678E-001
 0.164706299269609E-005
 0.376250082600171E-006
 0.499393210661901E-006
 0.497520905149510E-006
 0.795240603345116E-007
 0.208046557560629E-006
 0.172089843450948E-006
 0.153272894698553E-006
 0.860589583840940E-006
 0.153098216325858E-005
 0.219767195602709E-005
 0.245247542213857E-005
 0.139823380210968E+001
 0.415181242141974E-004
 0.169223625904397E+001
 0.273536501659764E+000
 0.104046659897413E+001
 0.536414313576309E+000
 0.107877018087154E-004
 0.625608444340383E+000
 0.219270026808295E-006
 0.283283363741161E-006
 0.644686635389180E-006
 0.294006921244097E-006
 0.100817759256455E-005
 0.376601125839065E-006
 0.163515540132018E-005
 0.105076364054818E-005
 0.120827362976327E-007
 0.113677669906818E-007
 0.141746272885530E-007
 0.122951220487273E-007
 0.192961820741166E-007
 0.256151158915868E-007
 0.182829169357431E-007
 0.204508127688140E-007
 0.831607450231053E-005
 0.568784308156385E+000
 0.371841780302943E-006
 0.869329388544442E-005
 0.146041547672110E-007
 0.248012851775886E-007
 0.153193926478897E-007
 0.170374470354505E-007
 0.766178422181596E-003
 0.265553864892248E-003
 0.213588676750193E-003
 0.793603605343966E-002
 0.466113359954063E-008
 0.352122212173982E-008
 0.644207894759379E-008
 0.440893090793947E-008
 0.126062208433972E-007
 0.150054810133156E-007
 0.128223660962124E-007
 0.133092485285037E-007
 0.218342730296677E-007
 0.184982460423789E-007
 0.163842824472570E-007
 0.183806703833401E-007
 0.107690916837030E-006
 0.487078353890752E-007
 0.101499700829543E-006
 0.868417260192889E-007
 0.105791464534946E-006
 0.270595833601060E-007
 0.175738292844423E-007
 0.261865902440817E-007
 0.126516762277055E-006
 0.524278650900900E-007
 0.114717392251456E-006
 0.852490959532839E-007
 0.921072594344499E-007
 0.426367818561395E-007
 0.409349071522450E-007
 0.475483220211469E-007
 0.507897238683707E-008
 0.506817954569267E-008
 0.620472982819337E-008
 0.531874771660103E-008
 0.113193425886501E-006
 0.605718561184515E-007
 0.969105740527446E-007
 0.956458600120208E-007
 0.282612056805112E-007
 0.284377057067724E-007
 0.196658103103680E-007
 0.250667302995627E-007
 0.107476130506704E-007
 0.143904660104381E-007
 0.135620925452938E-007
 0.128053353079552E-007
 0.436816192903200E-006
 0.236199464070469E-006
 0.407371928018627E-006
 0.383143700781756E-006
 0.119598022053913E-007
 0.157764933055384E-007
 0.151424074749577E-007
 0.141353256027391E-007
 0.115765500731236E-006
 0.719281277627559E-007
 0.100119832716211E-006
 0.103349372976651E-006
 0.148168360818024E-007
 0.131573192609031E-007
 0.124117415619175E-007
 0.133907089325484E-007
 0.685268432107825E-006
 0.578392200639555E-006
 0.144380503362985E-005
 0.867748439224140E-006
 0.388563351046987E-007
 0.568320788085220E-007
 0.323699208273406E-007
 0.392947092106507E-007
 0.739427628440085E-006
 0.305458528431227E-006
 0.885086565451393E-006
 0.772036778758229E-006
 0.276018017267221E-004
 0.253907990150303E-005
 0.112826230173244E+001
 0.183320355392629E-004
 0.218905797974002E-006
 0.386995835599454E-006
 0.249166233723906E-006
 0.281266965990121E-006
 0.642433610753672E-007
 0.115699638780947E-006
 0.373649098343866E-007
 0.548685800793109E-007
 0.544866382713889E-005
 0.277787988992354E+000
 0.744438662385588E+000
 0.207757065751721E+000
 0.556746707350705E-007
 0.444164861690131E-007
 0.329802442018120E-007
 0.444945766959872E-007
 0.159368332636676E-006
 0.309067186387244E-006
 0.353412494708773E-006
 0.293171839689564E-006
 0.583825239310378E-008
 0.819324078761513E-008
 0.134236457307984E-007
 0.775746615205173E-008
 0.177674790688758E-007
 0.191874138676292E-007
 0.222486533167865E-007
 0.201208696407765E-007
 0.332752190503534E-008
 0.301524088779259E-008
 0.326668675470533E-008
 0.320277883546441E-008
 0.255148866345411E-006
 0.131162959016914E-006
 0.116561181068271E-006
 0.137211115004225E-006
 0.108433329150950E-007
 0.600439014923029E-008
 0.727104090759059E-008
 0.763292308087942E-008
 0.111444445462049E-006
 0.911974726135057E-007
 0.163019239097788E-006
 0.103578163021947E-006
 0.184423913629055E-007
 0.198606961802606E-007
 0.240915545123376E-007
 0.204089891284480E-007
 0.316713497974487E-008
 0.330878340207264E-008
 0.393703569251500E-008
 0.347443768444092E-008
 0.715296425319415E-007
 0.849875658329745E-007
 0.185880138664228E-006
 0.943680752233403E-007
 0.780006165574856E-007
 0.909934755419880E-007
 0.568145710941412E-007
 0.715242710406016E-007
 0.162740253819694E-006
 0.167907081230365E-006
 0.115794178200317E-006
 0.179729015130258E-006
 0.252115406144357E-007
 0.224386670587460E-007
 0.246526858650347E-007
 0.236319401565245E-007
 0.950998371969522E-008
 0.105690509378210E-007
 0.115094035350364E-007
 0.105457946993825E-007
 0.173783431057136E-006
 0.167837310792057E-007
 0.338090548418106E-007
 0.274844603671205E-007
 0.188129190271759E-007
 0.226126274064872E-007
 0.210664507430190E-007
 0.203790097934044E-007
 0.757611945432430E-007
 0.144671112941043E-006
 0.181099215131073E-006
 0.132536532627658E-006
 0.654424993090913E-008
 0.802816684338476E-008
 0.677145187675600E-008
 0.713024485684691E-008
 0.241403370098193E-007
 0.226232662229447E-007
 0.248033035155292E-007
 0.238633568255153E-007
 0.141774121285781E-007
 0.172143847213703E-007
 0.166530291992204E-007
 0.155198082791182E-007
 0.222912253134064E-007
 0.365334606189365E-007
 0.325637134152440E-007
 0.314681658394415E-007
 0.919428111564313E-007
 0.710858278254866E-007
 0.170474052340896E-006
 0.974747900935527E-007
 0.263600023557680E-007
 0.369749676269851E-007
 0.213507386240732E-007
 0.263445640982325E-007
 0.217554766758333E-007
 0.299765796702206E-007
 0.263629584872499E-007
 0.256329198713005E-007
 0.528846226414085E-007
 0.658754324763844E-007
 0.433525772519190E-007
 0.517281465616035E-007
 0.117134179186692E-006
 0.109099892662261E-005
 0.217797532217031E-006
 0.334122811400747E-006
 0.113847823882292E+000
 0.879438678324610E-003
 0.782812367877725E-003
 0.587481142203758E-002
 0.139657705362837E-007
 0.153328369702106E-007
 0.117193460511290E-007
 0.137814304961242E-007
 0.237109129300093E-007
 0.190646831197607E-007
 0.250247823684365E-007
 0.226939387561030E-007
 0.101071163421890E-007
 0.126808789268911E-007
 0.107752472159846E-007
 0.109718660499713E-007
 0.173375652214433E-007
 0.212514729614264E-007
 0.160762353159386E-007
 0.179523342168362E-007
 0.582671668904704E-008
 0.640108090031717E-008
 0.633419189079514E-008
 0.609948240565385E-008
 0.823773458116531E-008
 0.816585622052662E-008
 0.935637740894852E-008
 0.858789627601430E-008
 0.130195494519096E+001
 0.105557083282741E+001
 0.320616420444261E-004
 0.711168989955154E+000
 0.661301234387459E-006
 0.177632635335713E-005
 0.136197823101213E-005
 0.170115396812484E-005
 0.465090414689016E-007
 0.323811769555873E-007
 0.539396313742023E-007
 0.433906222663006E-007
 0.504492205518135E-007
 0.305667573419906E-007
 0.321749816889254E-007
 0.343509073670549E-007
 0.321757040336420E-007
 0.282787257290720E-007
 0.400049408198472E-007
 0.316956726061900E-007
 0.118780963685852E-005
 0.975212999801532E-006
 0.505395774512442E-006
 0.825720289908232E-006
 0.514346125430290E-003
 0.258163291697925E-006
 0.997441818619947E-007
 0.161384959427152E-002
 0.671317054431270E-008
 0.651910074791157E-008
 0.551424329706681E-008
 0.618209089732207E-008
 0.787164527263821E-006
 0.129638416257653E-001
 0.716076804340733E-002
 0.108960603990127E-001
 0.447434754984607E-008
 0.485258875942880E-008
 0.343103078697818E-008
 0.400629482308447E-008
 0.652834323986118E-008
 0.141333473450975E-007
 0.156096726641636E-007
 0.107844638027777E-007
 0.859706279560374E-008
 0.119622744992454E-007
 0.136082025666261E-007
 0.110532303639373E-007
 0.133875903277881E-001
 0.465789532434023E-007
 0.133473552128432E-005
 0.846496199380018E-003
 0.294697264055686E-008
 0.266749627807141E-008
 0.306597708935321E-008
 0.282664826679006E-008
 0.457431529824152E-008
 0.357187885165521E-008
 0.319415332297493E-008
 0.373959760976056E-008
 0.799569206565142E-008
 0.968697789728508E-008
 0.103345610351649E-007
 0.922146889796463E-008
 0.362266274726644E-008
 0.446213628644799E-008
 0.432772550148872E-008
 0.404696546223170E-008
 0.693857835381971E-008
 0.561423721292985E-008
 0.128138043086250E-007
 0.732925441146936E-008
 0.792911729108580E-008
 0.865447202133025E-008
 0.925511158666934E-008
 0.851219250895568E-008
 0.260932391979112E-008
 0.261778859594342E-008
 0.276598366701883E-008
 0.264987268667378E-008
 0.103122176147032E-007
 0.906734653591072E-008
 0.941583523567491E-008
 0.967000850044254E-008
 0.329278176790810E-002
 0.188977643025500E-003
 0.449268264993910E-001
 0.295614314089011E-002
 0.108033443799248E-007
 0.225381625724428E-007