# vtk DataFile Version 3.0
Unstructured Grid
ASCII
DATASET UNSTRUCTURED_GRID
FIELD FieldData 1
TIME 1 1 float
  0.211042E+02
POINTS         1241 double
 0.000000000000000E+000 0.000000000000000E+000 0.000000000000000E+000
 0.100000000000000E+001 0.000000000000000E+000 0.000000000000000E+000
 0.100000000000000E+001 0.100000000000000E+001 0.000000000000000E+000
 0.000000000000000E+000 0.100000000000000E+001 0.000000000000000E+000
 0.125000000000000E+000 0.250000000000000E+000 0.000000000000000E+000
 0.375000000000000E+000 0.250000000000000E+000 0.000000000000000E+000
 0.375000000000000E+000 0.750000000000000E+000 0.000000000000000E+000
 0.125000000000000E+000 0.750000000000000E+000 0.000000000000000E+000
 0.625000000000000E+000 0.250000000000000E+000 0.000000000000000E+000
 0.875000000000000E+000 0.250000000000000E+000 0.000000000000000E+000
 0.875000000000000E+000 0.750000000000000E+000 0.000000000000000E+000
 0.625000000000000E+000 0.750000000000000E+000 0.000000000000000E+000
 0.100000000000000E+001 0.500000000000000E+000 0.000000000000000E+000
 0.000000000000000E+000 0.500000000000000E+000 0.000000000000000E+000
 0.500000000000000E+000 0.000000000000000E+000 0.000000000000000E+000
 0.125000000000000E+000 0.500000000000000E+000 0.000000000000000E+000
 0.000000000000000E+000 0.750000000000000E+000 0.000000000000000E+000
 0.000000000000000E+000 0.250000000000000E+000 0.000000000000000E+000
 0.000000000000000E+000 0.875000000000000E+000 0.000000000000000E+000
 0.308529810216860E+000 0.500255759132561E+000 0.000000000000000E+000
 0.250000000000000E+000 0.000000000000000E+000 0.000000000000000E+000
 0.125000000000000E+000 0.375000000000000E+000 0.000000000000000E+000
 0.125000000000000E+000 0.625000000000000E+000 0.000000000000000E+000
 0.000000000000000E+000 0.375000000000000E+000 0.000000000000000E+000
 0.000000000000000E+000 0.437500000000000E+000 0.000000000000000E+000
 0.625000000000000E-001 0.406250000000000E+000 0.000000000000000E+000
 0.125000000000000E+000 0.437500000000000E+000 0.000000000000000E+000
 0.216796875000000E+000 0.382812500000000E+000 0.000000000000000E+000
 0.183593750000000E+000 0.468750000000000E+000 0.000000000000000E+000
 0.375000000000000E+000 0.500000000000000E+000 0.000000000000000E+000
 0.250000000000000E+000 0.468750000000000E+000 0.000000000000000E+000
 0.625000000000000E-001 0.481770833333333E+000 0.000000000000000E+000
 0.184176834650379E+000 0.540399924344460E+000 0.000000000000000E+000
 0.216796875000000E+000 0.432195490056818E+000 0.000000000000000E+000
 0.168571309840426E+000 0.406250000000000E+000 0.000000000000000E+000
 0.125000000000000E+000 0.687500000000000E+000 0.000000000000000E+000
 0.255828208111702E+000 0.540763692652926E+000 0.000000000000000E+000
 0.375000000000000E+000 0.375000000000000E+000 0.000000000000000E+000
 0.375000000000000E+000 0.625000000000000E+000 0.000000000000000E+000
 0.220170948184400E+000 0.507406813570504E+000 0.000000000000000E+000
 0.219557967718869E+000 0.628145457476636E+000 0.000000000000000E+000
 0.125000000000000E+000 0.562500000000000E+000 0.000000000000000E+000
 0.000000000000000E+000 0.625000000000000E+000 0.000000000000000E+000
 0.375000000000000E+000 0.437500000000000E+000 0.000000000000000E+000
 0.280323303380492E+000 0.407503995028409E+000 0.000000000000000E+000
 0.375000000000000E+000 0.562500000000000E+000 0.000000000000000E+000
 0.219817452482738E+000 0.577034793653623E+000 0.000000000000000E+000
 0.885901781235304E-001 0.531250000000000E+000 0.000000000000000E+000
 0.312500000000000E+000 0.250000000000000E+000 0.000000000000000E+000
 0.297268942273640E+000 0.626076494243052E+000 0.000000000000000E+000
 0.168732375746058E+000 0.593750000000000E+000 0.000000000000000E+000
 0.173890458776596E+000 0.343750000000000E+000 0.000000000000000E+000
 0.183963193611824E+000 0.278873942859495E+000 0.000000000000000E+000
 0.250000000000000E+000 0.250000000000000E+000 0.000000000000000E+000
 0.237162500098357E+000 0.317347265649589E+000 0.000000000000000E+000
 0.250000000000000E+000 0.750000000000000E+000 0.000000000000000E+000
 0.292902283271084E+000 0.575476271929907E+000 0.000000000000000E+000
 0.125000000000000E+000 0.312500000000000E+000 0.000000000000000E+000
 0.585937500000000E-001 0.335937500000000E+000 0.000000000000000E+000
 0.000000000000000E+000 0.312500000000000E+000 0.000000000000000E+000
 0.336992576921227E+000 0.687500000000000E+000 0.000000000000000E+000
 0.312500000000000E+000 0.750000000000000E+000 0.000000000000000E+000
 0.270599706447422E+000 0.686880677247748E+000 0.000000000000000E+000
 0.500000000000000E+000 0.100000000000000E+001 0.000000000000000E+000
 0.250000000000000E+000 0.100000000000000E+001 0.000000000000000E+000
 0.375000000000000E+000 0.100000000000000E+001 0.000000000000000E+000
 0.281250000000000E+000 0.830729166666667E+000 0.000000000000000E+000
 0.343750000000000E+000 0.312500000000000E+000 0.000000000000000E+000
 0.318389033445014E+000 0.364242983277493E+000 0.000000000000000E+000
 0.267787317245899E+000 0.358095790057897E+000 0.000000000000000E+000
 0.289796410792034E+000 0.300414294603983E+000 0.000000000000000E+000
 0.274503756719177E+000 0.737152390322435E-001 0.000000000000000E+000
 0.343750000000000E+000 0.183159722222222E+000 0.000000000000000E+000
 0.246744791666667E+000 0.146267361111111E+000 0.000000000000000E+000
 0.485980902777778E+000 0.146267361111111E+000 0.000000000000000E+000
 0.302262721771688E+000 0.146267361111111E+000 0.000000000000000E+000
 0.274503756719177E+000 0.197313658770435E+000 0.000000000000000E+000
 0.375000000000000E+000 0.000000000000000E+000 0.000000000000000E+000
 0.420862160086615E+000 0.187832617434252E+000 0.000000000000000E+000
 0.384683294119816E+000 0.146267361111111E+000 0.000000000000000E+000
 0.330565923051619E+000 0.413335216176427E+000 0.000000000000000E+000
 0.352621063931298E+000 0.818811625318066E+000 0.000000000000000E+000
 0.312179705605879E+000 0.796288985503351E+000 0.000000000000000E+000
 0.500000000000000E+000 0.828697389616904E+000 0.000000000000000E+000
 0.427559261986282E+000 0.805138192500353E+000 0.000000000000000E+000
 0.399035374849065E+000 0.860999763838749E+000 0.000000000000000E+000
 0.312500000000000E+000 0.000000000000000E+000 0.000000000000000E+000
 0.187500000000000E+000 0.820606518817204E+000 0.000000000000000E+000
 0.466707069430364E+000 0.898575881689250E+000 0.000000000000000E+000
 0.511172798160702E+000 0.257526753061783E+000 0.000000000000000E+000
 0.453250172578119E+000 0.849294180402265E+000 0.000000000000000E+000
 0.937500000000000E-001 0.504496261452806E-001 0.000000000000000E+000
 0.403162177800535E+000 0.933291523780214E+000 0.000000000000000E+000
 0.437500000000000E+000 0.100000000000000E+001 0.000000000000000E+000
 0.312500000000000E+000 0.934315683855312E+000 0.000000000000000E+000
 0.453353205989905E+000 0.949647808263675E+000 0.000000000000000E+000
 0.358054120979715E+000 0.953547171775243E+000 0.000000000000000E+000
 0.325154404090345E+000 0.873991089312954E+000 0.000000000000000E+000
 0.367644435624882E+000 0.899055397729593E+000 0.000000000000000E+000
 0.236990017361111E+000 0.801449092741935E+000 0.000000000000000E+000
 0.443167922913219E+000 0.252288460541578E+000 0.000000000000000E+000
 0.477263196714215E+000 0.204401840413902E+000 0.000000000000000E+000
 0.562394794036017E+000 0.187447086349591E+000 0.000000000000000E+000
 0.625000000000000E+000 0.375000000000000E+000 0.000000000000000E+000
 0.407024191230044E+000 0.312500000000000E+000 0.000000000000000E+000
 0.474084945258901E+000 0.294963270028168E+000 0.000000000000000E+000
 0.216342369774119E+000 0.930487241414522E-001 0.000000000000000E+000
 0.157072243143605E+000 0.162201579117130E+000 0.000000000000000E+000
 0.187500000000000E+000 0.000000000000000E+000 0.000000000000000E+000
 0.174352819470591E+000 0.117036261141583E+000 0.000000000000000E+000
 0.125000000000000E+000 0.000000000000000E+000 0.000000000000000E+000
 0.218750000000000E+000 0.413079239859885E-001 0.000000000000000E+000
 0.131982343008202E+000 0.962324019836500E-001 0.000000000000000E+000
 0.866442243142230E-001 0.109366815743071E+000 0.000000000000000E+000
 0.000000000000000E+000 0.125000000000000E+000 0.000000000000000E+000
 0.156250000000000E+000 0.557461246091935E-001 0.000000000000000E+000
 0.343473007945752E+000 0.889135573360382E-001 0.000000000000000E+000
 0.316206161479800E+000 0.485604570335434E-001 0.000000000000000E+000
 0.430629647389619E+000 0.697713778434944E-001 0.000000000000000E+000
 0.391175490408355E+000 0.981202752650288E-001 0.000000000000000E+000
 0.444501950008550E+000 0.736368377006958E+000 0.000000000000000E+000
 0.398829470438439E+000 0.687500000000000E+000 0.000000000000000E+000
 0.513688817046671E+000 0.757625009132424E+000 0.000000000000000E+000
 0.625000000000000E+000 0.500000000000000E+000 0.000000000000000E+000
 0.473588841595499E+000 0.786756047776317E+000 0.000000000000000E+000
 0.478860669310979E+000 0.411527234375853E+000 0.000000000000000E+000
 0.572911532233985E+000 0.805885984489640E+000 0.000000000000000E+000
 0.447298813474571E+000 0.682006891579307E+000 0.000000000000000E+000
 0.504019394669429E+000 0.534902916754864E+000 0.000000000000000E+000
 0.486274863958833E+000 0.352843653662708E+000 0.000000000000000E+000
 0.551332894747653E+000 0.390873360445252E+000 0.000000000000000E+000
 0.433027718644055E+000 0.375926460599989E+000 0.000000000000000E+000
 0.437992666628316E+000 0.468750000000000E+000 0.000000000000000E+000
 0.421394775819071E+000 0.423093236096220E+000 0.000000000000000E+000
 0.501785840486804E+000 0.471105361968983E+000 0.000000000000000E+000
 0.433650269193003E+000 0.539110962574808E+000 0.000000000000000E+000
 0.559767288621728E+000 0.501013305633588E+000 0.000000000000000E+000
 0.473047166828055E+000 0.607447789310414E+000 0.000000000000000E+000
 0.551301338206151E+000 0.446268697831009E+000 0.000000000000000E+000
 0.625000000000000E+000 0.625000000000000E+000 0.000000000000000E+000
[...]
CELL_DATA         2368
SCALARS tdens double 1
LOOKUP_TABLE default
 0.759486549235953E-003
 0.108787216392901E-002
 0.465177631823222E-003
 0.790839868766072E-003
 0.215150727920055E-003
 0.250804891408669E-003
 0.232814695299656E-003
 0.232119749173275E-003
 0.197351050374378E-001
 0.421215016349874E-001
 0.198710097968249E-001
 0.217254945939193E-001
 0.528631244662589E-001
 0.706283218536403E-001
 0.335143338311752E-001
 0.352063618807788E-001
 0.295385655074403E-001
 0.131275794657122E-001
 0.209399892960062E-001
 0.214471150787355E-001
 0.864133690527577E-004
 0.817612854017257E-004
 0.825909924593709E-004
 0.836389377818079E-004
 0.234106438811475E-003
 0.447313770644772E-003
 0.318305791160212E-003
 0.284854181119056E-003
 0.775311173816824E-002
 0.825348517993679E-002
 0.153117196915129E-001
 0.900478780613334E-002
 0.750409784326971E-002
 0.107913776086272E-001
 0.624028564410366E-002
 0.735727585490416E-002
 0.231489603723927E-003
 0.216576331002689E-003
 0.238376214718089E-003
 0.227622220142114E-003
 0.249548019240501E-003
 0.270928821222713E-003
 0.286571170577938E-003
 0.267391062120377E-003
 0.102869567557526E-002
 0.856664735792095E-003
 0.637120255604938E-003
 0.798543155714955E-003
 0.806391276541524E-001
 0.307850768044158E-001
 0.316550947262948E-001
 0.460436453803962E-001
 0.178760502771307E-002
 0.159780873155144E-002
 0.255698449089801E-002
 0.177531187221129E-002
 0.805737316732479E-004
 0.788474765233777E-004
 0.807449929470837E-004
 0.796573790713670E-004
 0.298884354815573E-003
 0.353196078532980E-003
 0.309020956397349E-003
 0.322818750760961E-003
 0.448579678852441E-003
 0.366980524470315E-003
 0.473652425954595E-003
 0.423285739554135E-003
 0.104737671025542E-003
 0.110701405948500E-003
 0.107721683416484E-003
 0.106789499279871E-003
 0.112089006190532E-003
 0.134645376903660E-003
 0.107330893069548E-003
 0.113096208221063E-003
 0.149463258189166E-001
 0.114635902016756E-001
 0.825141201766826E-002
 0.118799968890377E-001
 0.474938214339528E-002
 0.148758382490620E-001
 0.465303302646975E-002
 0.509192942287496E-002
 0.204878878278487E-003
 0.156310105413194E-003
 0.167243138697676E-003
 0.169167118378192E-003
 0.322355815564963E-001
 0.417408464511154E-001
 0.122499546929775E-001
 0.111898548743515E-001
 0.103389120713695E-003
 0.105252725641778E-003
 0.110195458470731E-003
 0.106256441167580E-003
 0.100603773590694E+000
 0.272610584795605E+000
 0.448297509723376E+000
 0.187021892978538E+000
 0.217296142957887E-001
 0.258890619108235E-001
 0.570865120861681E-001
 0.214480474604037E-001
 0.112045554589441E-003
 0.105291014949415E-003
 0.112981844474853E-003
 0.108773569842111E-003
 0.113759667844711E-003
 0.110837082474239E-003
 0.121786646799716E-003
 0.115016840330286E-003
 0.132236483711396E-003
 0.137706667774172E-003
 0.126003874513740E-003
 0.131628818910314E-003
 0.111956142642178E-002
 0.138547095296208E-002
 0.221929927370621E-002
 0.151641382351007E-002
 0.461610754092502E-002
 0.280216271985091E-002
 0.480456598442788E-002
 0.433212292374689E-002
 0.246773049544127E-003
 0.157666988249926E-003
 0.176399008947963E-003
 0.181502323442144E-003
 0.131059052999935E-003
 0.130352249032332E-003
 0.129608851731341E-003
 0.130459275039051E-003
 0.352345904552772E-001
 0.224271684438536E-001
 0.207325615548549E-001
 0.231609516676977E-001
 0.154268381506673E-003
 0.136885161023827E-003
 0.154365831122127E-003
 0.148877154369649E-003
 0.177657626980976E-003
 0.158721527386760E-003
 0.270141690423016E-003
 0.186131305454861E-003
 0.134311302673542E-003
 0.134990973927103E-003
 0.140225015037260E-003
 0.135990410293962E-003
 0.133388483777860E-003
 0.132420234166962E-003
 0.130876578096869E-003
 0.132284305147604E-003
 0.127438202927511E-003
 0.107375637487169E-003
 0.132897549863213E-003
 0.116713533682383E-003
 0.534658856354702E-002
 0.172370188298405E-002
 0.711529765150658E-003
 0.233184553592839E-002
 0.159668518087454E-001
 0.388269425836405E-002
 0.196206789170911E-001
 0.562225891496153E-002
 0.206346593061640E-001
 0.481563904686225E-001
 0.865309035315801E-001
 0.942403796713691E-001
 0.270021089421873E-002
 0.736890955511506E-003
 0.143692066741386E-003
 0.862013502969591E-003
 0.176303092042735E+000
 0.700630980395349E-001
 0.109137664309329E+000
 0.624913095250062E-001
 0.662490599511511E-001
 0.473625263425905E-001
 0.775561698635481E-001
 0.905912338279536E-001
 0.639181519272920E-003
 0.691518722544240E-003
 0.721713633579198E-002
 0.458057929323419E-002
 0.144289537980250E-003
 0.139053240630479E-003
 0.132609009622367E-003
 0.137478583626691E-003
 0.141048392920591E-002
 0.935027522456024E-003
 0.113501928530181E-002
 0.117407738561545E-002
 0.128451595396831E-003
 0.129185374344356E-003
 0.126193228616612E-003
 0.127303305918085E-003
 0.140031191280414E-003
 0.133888904164204E-003
 0.130750146710710E-003
 0.132485735568509E-003
 0.714522554502288E-003
 0.663715325238051E-003
 0.557559378262915E-002
 0.384479983647840E-002
 0.879323794275113E-003
 0.602321112985630E-003
 0.589572039662587E-002
 0.613762387520140E-003
 0.457644908736477E-002
 0.218218134784213E-001
 0.364376054924474E-002
 0.137165273997980E-001
 0.144045997476365E-001
 0.112282555443453E-001
 0.199341145346919E-001
 0.117543628549079E-001
 0.948566734731622E-002
 0.245619841595586E-002
 0.209422591773008E-002
 0.248346727037951E-002
 0.117200372128800E-001
 0.212040478436404E-002
 0.400744247375101E-002
 0.678256237722987E-002
 0.192110226591045E+000
 0.559618285188003E-001
 0.260446436881717E+000
 0.309927985763669E+000
 0.128630196571059E-003
 0.122319615369278E-003
 0.123882035955708E-003
 0.125476486026646E-003
 0.592624761577875E-001
 0.658944477678922E-001
 0.361226859559019E+000
 0.519471642142394E-001
 0.455139964717373E-003
 0.583127339290461E-003
 0.254388756994892E-003
 0.381251398022586E-003
 0.284913028476371E-003
 0.266071155211340E-003
 0.313296908555073E-003
 0.284013969314019E-003
 0.610449526475348E-003
 0.733262780489414E-003
 0.961028924890706E-003
 0.765842920085515E-003
 0.278741729999738E-001
 0.344680247954183E-001
 0.184652184315239E-001
 0.301570992605123E-001
 0.588881890294449E-003
 0.550216023768798E-003
 0.733518164519494E-003
 0.601587146680784E-003
 0.201987804337260E-001
 0.472233734847588E-001
 0.375443288950335E-001
 0.362716116736402E-001
 0.280683822820583E-001
 0.315412592328934E-001
 0.195779158568188E-001
 0.274560812066823E-001
 0.916075354847028E-002
 0.215081240844560E-001
 0.748624341158174E-002
 0.100144104966931E-001
 0.466331687976382E-002
 0.948227717791806E-002
 0.577898556445100E-002
 0.612884420535582E-002
 0.217387610203451E-002
 0.107247871028544E-001
 0.739593097340316E-002
 0.733682906192386E-002
 0.596421343873837E-003
 0.699210958023764E-003
 0.997608578775914E-003
 0.682831042130806E-003
 0.145626671224514E-003
 0.137069840008003E-003
 0.155698347922383E-003
 0.142890763020197E-003
 0.281444329773355E-001
 0.104403674452510E-001
 0.812725248884556E-002
 0.687991335338764E-002
 0.216362826141243E-001
 0.203516740617075E-001
 0.322328752089599E-001
 0.248427074773543E-001
 0.138350887840978E-001
 0.160986922838668E-001
 0.168297728278396E-001
 0.184025625846307E-001
 0.370453481058155E-002
 0.108780649265608E-002
 0.141583735745985E-002
 0.160814471842459E-002
 0.655766824960179E-002
 0.394332440714351E-002
 0.166387997692470E-001
 0.539566671883424E-002
 0.914802002791778E-001
 0.204298444683677E+000
 0.929983882905238E+000
 0.242285860362541E+000
 0.560717943462433E-002
 0.103656506505335E-001
 0.124104195655841E-001
 0.118755924100624E-001
 0.141143280149123E-001
 0.341949211746794E-001
 0.211269816802046E-001
 0.203764223348774E-001
 0.727304657535092E-002
 0.613932318975707E-003
 0.473232621059367E-002
 0.479785009132983E-002
 0.189399492927198E-003
 0.149999589493483E-003
 0.233370687553836E-003
 0.182389120595116E-003
 0.132997935502909E-003
 0.124383433857466E-003
 0.140794742301575E-003
 0.131903703194345E-003
 0.962444372708720E-001
 0.751974149820100E-001
 0.150798725385855E+000
 0.999555379606605E-001
 0.103328105605367E-001
 0.514525780418675E-002
 0.115538666862036E-001
 0.117374704159465E-001
 0.100898676675168E-001
 0.869107105415950E-002
 0.178415007454878E-001
 0.993518819233775E-002
 0.200839418136989E-002
 0.504549508601791E-002
 0.766334680944466E-002
 0.568470309269325E-002
 0.987071933837875E-002
 0.241358372567843E-002
 0.189849103695617E-002
 0.354184917181213E-002
 0.136785294693022E-002
 0.131155253457804E-002
 0.481624129873183E-002
 0.151910579461695E-002
 0.106070871157830E-001
 0.301526384168637E-002
 0.148089064408537E-001
 0.172979773206069E-001
 0.847810544370743E-002
 0.122749098505448E-001
 0.166508225958073E-001
 0.199372376682720E-001
 0.257658377430415E-003
 0.528263941432641E-003
 0.869331561752933E-003
 0.480339172404172E-003
 0.700223565639249E-001
 0.796689706851621E-001
 0.122812720846323E+000
 0.866160938385319E-001
 0.187149449942144E-002
 0.376022697342714E-002
 0.300708424257255E-002
 0.277428538715905E-002
 0.132186235529311E-001
 0.185240956220887E-001
 0.316444484293565E-001
 0.204769651045592E-001
 0.523638213734394E-002
 0.174442671922751E+000
 0.193588647065043E-001
 0.358482546723320E-002
 0.602843046267652E-003
 0.411352205329906E-003
 0.474113359006614E-003
 0.493013481141400E-003
 0.689904135234672E-002
 0.550334759058379E-002
 0.495439433555942E-002
 0.491942681915867E-002
 0.276314556936670E-001
 0.566350973255739E-001
 0.554310060067790E-001
 0.460823394633856E-001
 0.440952897320453E-001
 0.770182215687925E-001
 0.109112245937945E+001
 0.795046046379457E-001
 0.950534711738336E-002
 0.475454134080777E-002
 0.262954354164016E-002
 0.375152173672744E-002
 0.872757644856287E-003
 0.774956835538383E-003
 0.251252173805610E-003
 0.457186483550452E-003
 0.155284384201884E+000
 0.108674563106089E+000
 0.290347347225980E-001
 0.759920168605192E-001
 0.122067828706907E-003
 0.129273414794559E-003
 0.130321723995566E-003
 0.126384173340254E-003
 0.137894258010953E-003
 0.150735470604004E-003
 0.133426521740139E-003
 0.139948831652285E-003
 0.758619870293472E-002
 0.200173310064877E-001
 0.203791531061984E-001
 0.221091152320682E-001
 0.139251340776473E-003
 0.135231719460617E-003
 0.134831537181448E-003
 0.136382456158714E-003
 0.538558864931297E-002
 0.803267175100209E-002
 0.613164988557004E-002
 0.714203246894981E-002
 0.125479451696783E-001
 0.186495699842276E-001
 0.199424745197354E-001
 0.210480733453574E-001
 0.525348826613997E-001
 0.419183711872500E-001
 0.194914835455456E-001
 0.473399489064121E-001
 0.354553999865001E-003
 0.626520432926382E-003
 0.313652353957035E-002
 0.273815255834488E-002
 0.203031057360890E-002
 0.347453711005133E-002
 0.351756477223055E-002
 0.328192232917514E-002
 0.463597791752169E-002
 0.254426319521883E-002
 0.422508177163948E-002
 0.386864666505346E-002
 0.202781563175389E-002
 0.285782173074478E-002
 0.349788008226524E-002
 0.285581156645788E-002
 0.926969900221216E-002
 0.141538460378732E-001
 0.181995816017498E-001
 0.130168054388579E-001
 0.757243687315908E-003
 0.765245949294823E-003
 0.969862726150346E-003
 0.793570503818074E-003
 0.548616186740111E-003
 0.539618098489730E-003
 0.747385413953809E-003
 0.580280182175668E-003
 0.272511419822902E-001
 0.805090432598959E-002
 0.578038198030619E-002
 0.754548019638966E-002
 0.254853092731413E-001
 0.820939769759032E-002
 0.102941336438923E-001
 0.105285513787360E-001
 0.209333456462202E-002
 0.503204663980029E-002
 0.423333168364208E-002
 0.373467711639328E-002
 0.905957185903718E-002
 0.186715835480210E-001
 0.183891664127058E-001
 0.223801003905326E-001
 0.129582472804842E+000
 0.978344439053903E-001
 0.764067305481975E-001
 0.755817295862476E-001
 0.179085159395285E+000
 0.179732467785149E+000
 0.722522743060639E-001
 0.152127680605798E+000
 0.489504105793648E-002
 0.638782789967172E-002
 0.122020175198223E-001
 0.653278534663679E-002
 0.176628190356150E-001
 0.828320708440362E-002
 0.258941984230338E-001
 0.183636309989109E-001
 0.348007554925309E-003
 0.331498887492744E-003
 0.404444257846202E-003
 0.355130395559146E-003
 0.543150746487793E-003
 0.696180335293119E-003
 0.511842490024503E-003
 0.570088701921250E-003
 0.354531004109598E-001
 0.968589961141474E-001
 0.540154550209856E-002
 0.402527136721711E-001
 0.398369436284422E-003
 0.616541495886309E-003
 0.402217630135660E-003
 0.450516687355656E-003
 0.142231286228021E-001
 0.744013819229697E-003
 0.123107648150709E-002
 0.714737243956965E-002
 0.135877545890493E-003
 0.104925144232600E-003
 0.176171839163682E-003
 0.127718983524643E-003
 0.371119218103984E-003
 0.438344314258551E-003
 0.376680542412095E-003
 0.391040193042219E-003
 0.619707050279806E-003
 0.526827591606044E-003
 0.471707325274563E-003
 0.525959522338716E-003
 0.243331991961726E-002
 0.124599664867115E-002
 0.244746966117821E-002
 0.203156930697915E-002
 0.137260124299577E-002
 0.563669872992893E-003
 0.431556113984141E-003
 0.561725177466704E-003
 0.191707392362630E-002
 0.116276952554963E-002
 0.230480823068754E-002
 0.160804095409820E-002
 0.198927352059277E-002
 0.101440488386666E-002
 0.103264781421304E-002
 0.116388795301130E-002
 0.151904099595174E-003
 0.151393896817795E-003
 0.181351223962674E-003
 0.157969339608340E-003
 0.238503218821553E-002
 0.142799896916893E-002
 0.209176033044930E-002
 0.207449422082798E-002
 0.753128215098494E-003
 0.734208232943998E-003
 0.542547505359204E-003
 0.668803149600171E-003
 0.316917312430485E-003
 0.419184757525807E-003
 0.395299648874630E-003
 0.374158161532572E-003
 0.644915762681650E-002
 0.418312661627920E-002
 0.591538448860395E-002
 0.581014367410754E-002
 0.348377606585438E-003
 0.451750587330274E-003
 0.431703006557817E-003
 0.406726079557514E-003
 0.321094155196127E-002
 0.203322485390467E-002
 0.283942031643328E-002
 0.289546558110734E-002
 0.417690843412454E-003
 0.369709334777358E-003
 0.353884081347539E-003
 0.379462196468265E-003
 0.785045606193326E-002
 0.685097200380496E-002
 0.973363792723210E-002
 0.891295535631874E-002
 0.966937213805656E-003
 0.134199724249318E-002
 0.826085301288106E-003
 0.981953103533837E-003
 0.978539110594292E-002
 0.492111616734809E-002
 0.881477052201331E-002
 0.905477374454726E-002
 0.234276636931831E-001
 0.199499467352754E-001
 0.371904955563763E-001
 0.249460114663644E-001
 0.401212568261083E-002
 0.614413764350026E-002
 0.490067799638396E-002
 0.514473242632339E-002
 0.127010827174873E-002
 0.220821777414528E-002
 0.869522639149651E-003
 0.117115240631124E-002
 0.122907723313884E-001
 0.140486129069831E-001
 0.137805627272409E-001
 0.135779046536604E-001
 0.132296324352041E-002
 0.109512718649089E-002
 0.844187682173853E-003
 0.109299173136760E-002
 0.306715612894785E-002
 0.487526500170484E-002
 0.530151752343898E-002
 0.466886102695451E-002
 0.166178951529947E-003
 0.217990993903236E-003
 0.294481056282375E-003
 0.211447512034723E-003
 0.485567755502288E-003
 0.518806929322733E-003
 0.594960927065351E-003
 0.542734951392124E-003
 0.101767366340445E-003
 0.927790458983668E-004
 0.100202784930561E-003
 0.982392978270834E-004
 0.427890825789242E-002
 0.263135446642590E-002
 0.240773817352843E-002
 0.275125539318958E-002
 0.289935366848562E-003
 0.176886907219214E-003
 0.207718960586801E-003
 0.217759560372638E-003
 0.260700997333788E-002
 0.211164951555690E-002
 0.363246690193675E-002
 0.242063406776367E-002
 0.531158519696482E-003
 0.570374751098298E-003
 0.684207326750794E-003
 0.585414634491904E-003
 0.974989891839886E-004
 0.101746782698774E-003
 0.119638815094779E-003
 0.106444446983403E-003
 0.186869660047493E-002
 0.220828752668658E-002
 0.445713917420981E-002
 0.246649665350338E-002
 0.175407363916126E-002
 0.198870352901610E-002
 0.135276537205156E-002
 0.162703975524048E-002
 0.383239683531569E-002
 0.419885683507598E-002
 0.279714305825434E-002
 0.422502722427113E-002
 0.671213974350996E-003
 0.604988591061855E-003
 0.655676417978347E-003
 0.631588078964972E-003
 0.267610775688981E-003
 0.294374659665337E-003
 0.321081533035694E-003
 0.294503470250840E-003
 0.206414843343359E-002
 0.397438477067485E-003
 0.568094364088756E-003
 0.572527436973896E-003
 0.512608478630751E-003
 0.604739416784473E-003
 0.570376579676585E-003
 0.552412674153196E-003
 0.170861948095554E-002
 0.289151141718802E-002
 0.354945356823275E-002
 0.268276104488564E-002
 0.197138872336442E-003
 0.239895969067089E-003
 0.203675240335193E-003
 0.214217444058698E-003
 0.648731535336813E-003
 0.610259627918658E-003
 0.662158188822466E-003
 0.641329781308429E-003
 0.391725615824556E-003
 0.468829967746881E-003
 0.456605535805502E-003
 0.427368926444745E-003
 0.585932771508424E-003
 0.909811086055375E-003
 0.826375458516886E-003
 0.794350075942266E-003
 0.200292197552664E-002
 0.161518455658141E-002
 0.329795107622062E-002
 0.212837953022004E-002
 0.662785646492898E-003
 0.908560128463253E-003
 0.557968280997957E-003
 0.671313812611289E-003
 0.580312193397096E-003
 0.770882350259279E-003
 0.691123329136263E-003
 0.671671929802314E-003
 0.125923716758262E-002
 0.152849278676182E-002
 0.106421201960138E-002
 0.123821484242508E-002
 0.181773744335384E-002
 0.673662749575219E-002
 0.333863434289157E-002
 0.407288072499311E-002
 0.235954009216749E-001
 0.190970061177900E-001
 0.809587390362377E-002
 0.173316161970273E-001
 0.405485775038559E-003
 0.441527552303013E-003
 0.342680641668137E-003
 0.399039092236039E-003
 0.673576088473400E-003
 0.548135663607894E-003
 0.710034093746104E-003
 0.645681742022823E-003
 0.298393075569183E-003
 0.369827101705483E-003
 0.316495630771009E-003
 0.322694595465643E-003
 0.499827782748612E-003
 0.605296295379234E-003
 0.464173261534388E-003
 0.516513892997114E-003
 0.176257654670867E-003
 0.192906071378699E-003
 0.190949035344919E-003
 0.184148529026435E-003
 0.244897216696349E-003
 0.243144000610036E-003
 0.276518018748776E-003
 0.254998166229187E-003
 0.864161152414875E+000
 0.651255969621043E+000
 0.291708341215032E-001
 0.795640559328545E+000
 0.969299650837145E-002
 0.308097701231460E-001
 0.276713709922864E-001
 0.293749436355820E-001
 0.126592819061990E-002
 0.902984868346822E-003
 0.146204605125786E-002
 0.118367053184571E-002
 0.136643630596379E-002
 0.853547765040764E-003
 0.897760776924751E-003
 0.958786307467618E-003
 0.902127512553895E-003
 0.802873390926737E-003
 0.110794854536773E-002
 0.892435604072129E-003
 0.162108419988373E-001
 0.148931588422260E-001
 0.933785929737487E-002
 0.126356197828867E-001
 0.467777595584923E-002
 0.973604845807631E-003
 0.967515717734456E-003
 0.115321143363914E-002
 0.195158231989838E-003
 0.189474876078509E-003
 0.163438461088268E-003
 0.181113981144842E-003
 0.919554874991131E-002
 0.483946371695995E-001
 0.161587424585007E-001
 0.230565519666494E-001
 0.135066446674068E-003
 0.144505069462753E-003
 0.104905287181763E-003
 0.121125382450848E-003
 0.193950327340070E-003
 0.348178543014571E-003
 0.384866067387851E-003
 0.293608842996144E-003
 0.239220811740347E-003
 0.317235870377341E-003
 0.340263538204000E-003
 0.294153051445511E-003
 0.610500589558313E-002
 0.763480994450046E-003
 0.292117490662474E-002
 0.320732872517704E-002
 0.899404817761946E-004
 0.827923095824859E-004
 0.933558026868104E-004
 0.871172055106159E-004
 0.134433958522709E-003
 0.107351938684084E-003
 0.979884033263881E-004
 0.112543796529330E-003
 0.228730009401677E-003
 0.273448456436716E-003
 0.286063641350283E-003
 0.259426666830577E-003
 0.110826803853416E-003
 0.134644638118483E-003
 0.130865263415342E-003
 0.122955519763538E-003
 0.198928201588350E-003
 0.167458689386755E-003
 0.362455404707372E-003
 0.216089087675872E-003
 0.227397295441425E-003
 0.247900253530889E-003
 0.263062257638665E-003
 0.243662379896796E-003
 0.808503010805295E-004
 0.814134174444378E-004
 0.850952697612508E-004
 0.820158323883505E-004
 0.298898497149882E-003
 0.264612476799031E-003
 0.275461081422763E-003
 0.281263530101482E-003
 0.759703327806583E-003
 0.117913539488190E-002
 0.588427232437648E-002
 0.184857455097475E-002
 0.261791659024740E-003
 0.528593259690172E-003