# vtk DataFile Version 3.0
Unstructured Grid
ASCII
DATASET UNSTRUCTURED_GRID
FIELD FieldData 1
TIME 1 1 float
  0.193264E+02
POINTS         1241 double
 0.000000000000000E+000 0.000000000000000E+000 0.000000000000000E+000
 0.100000000000000E+001 0.000000000000000E+000 0.000000000000000E+000
 0.100000000000000E+001 0.100000000000000E+001 0.000000000000000E+000
 0.000000000000000E+000 0.100000000000000E+001 0.000000000000000E+000
 0.125000000000000E+000 0.250000000000000E+000 0.000000000000000E+000
 0.375000000000000E+000 0.250000000000000E+000 0.000000000000000E+000
 0.375000000000000E+000 0.750000000000000E+000 0.000000000000000E+000
 0.125000000000000E+000 0.750000000000000E+000 0.000000000000000E+000
 0.625000000000000E+000 0.250000000000000E+000 0.000000000000000E+000
 0.875000000000000E+000 0.250000000000000E+000 0.000000000000000E+000
 0.875000000000000E+000 0.750000000000000E+000 0.000000000000000E+000
 0.625000000000000E+000 0.750000000000000E+000 0.000000000000000E+000
 0.100000000000000E+001 0.500000000000000E+000 0.000000000000000E+000
 0.000000000000000E+000 0.500000000000000E+000 0.000000000000000E+000
 0.500000000000000E+000 0.000000000000000E+000 0.000000000000000E+000
 0.125000000000000E+000 0.500000000000000E+000 0.000000000000000E+000
 0.000000000000000E+000 0.750000000000000E+000 0.000000000000000E+000
 0.000000000000000E+000 0.250000000000000E+000 0.000000000000000E+000
 0.000000000000000E+000 0.875000000000000E+000 0.000000000000000E+000
 0.308529810216860E+000 0.500255759132561E+000 0.000000000000000E+000
 0.250000000000000E+000 0.000000000000000E+000 0.000000000000000E+000
 0.125000000000000E+000 0.375000000000000E+000 0.000000000000000E+000
 0.125000000000000E+000 0.625000000000000E+000 0.000000000000000E+000
 0.000000000000000E+000 0.375000000000000E+000 0.000000000000000E+000
 0.000000000000000E+000 0.437500000000000E+000 0.000000000000000E+000
 0.625000000000000E-001 0.406250000000000E+000 0.000000000000000E+000
 0.125000000000000E+000 0.437500000000000E+000 0.000000000000000E+000
 0.216796875000000E+000 0.382812500000000E+000 0.000000000000000E+000
 0.183593750000000E+000 0.468750000000000E+000 0.000000000000000E+000
 0.375000000000000E+000 0.500000000000000E+000 0.000000000000000E+000
 0.250000000000000E+000 0.468750000000000E+000 0.000000000000000E+000
 0.625000000000000E-001 0.481770833333333E+000 0.000000000000000E+000
 0.184176834650379E+000 0.540399924344460E+000 0.000000000000000E+000
 0.216796875000000E+000 0.432195490056818E+000 0.000000000000000E+000
 0.168571309840426E+000 0.406250000000000E+000 0.000000000000000E+000
 0.125000000000000E+000 0.687500000000000E+000 0.000000000000000E+000
 0.255828208111702E+000 0.540763692652926E+000 0.000000000000000E+000
 0.375000000000000E+000 0.375000000000000E+000 0.000000000000000E+000
 0.375000000000000E+000 0.625000000000000E+000 0.000000000000000E+000
 0.220170948184400E+000 0.507406813570504E+000 0.000000000000000E+000
 0.219557967718869E+000 0.628145457476636E+000 0.000000000000000E+000
 0.125000000000000E+000 0.562500000000000E+000 0.000000000000000E+000
 0.000000000000000E+000 0.625000000000000E+000 0.000000000000000E+000
 0.375000000000000E+000 0.437500000000000E+000 0.000000000000000E+000
 0.280323303380492E+000 0.407503995028409E+000 0.000000000000000E+000
 0.375000000000000E+000 0.562500000000000E+000 0.000000000000000E+000
 0.219817452482738E+000 0.577034793653623E+000 0.000000000000000E+000
 0.885901781235304E-001 0.531250000000000E+000 0.000000000000000E+000
 0.312500000000000E+000 0.250000000000000E+000 0.000000000000000E+000
 0.297268942273640E+000 0.626076494243052E+000 0.000000000000000E+000
 0.168732375746058E+000 0.593750000000000E+000 0.000000000000000E+000
 0.173890458776596E+000 0.343750000000000E+000 0.000000000000000E+000
 0.183963193611824E+000 0.278873942859495E+000 0.000000000000000E+000
 0.250000000000000E+000 0.250000000000000E+000 0.000000000000000E+000
 0.237162500098357E+000 0.317347265649589E+000 0.000000000000000E+000
 0.250000000000000E+000 0.750000000000000E+000 0.000000000000000E+000
 0.292902283271084E+000 0.575476271929907E+000 0.000000000000000E+000
 0.125000000000000E+000 0.312500000000000E+000 0.000000000000000E+000
 0.585937500000000E-001 0.335937500000000E+000 0.000000000000000E+000
 0.000000000000000E+000 0.312500000000000E+000 0.000000000000000E+000
 0.336992576921227E+000 0.687500000000000E+000 0.000000000000000E+000
 0.312500000000000E+000 0.750000000000000E+000 0.000000000000000E+000
 0.270599706447422E+000 0.686880677247748E+000 0.000000000000000E+000
 0.500000000000000E+000 0.100000000000000E+001 0.000000000000000E+000
 0.250000000000000E+000 0.100000000000000E+001 0.000000000000000E+000
 0.375000000000000E+000 0.100000000000000E+001 0.000000000000000E+000
 0.281250000000000E+000 0.830729166666667E+000 0.000000000000000E+000
 0.343750000000000E+000 0.312500000000000E+000 0.000000000000000E+000
 0.318389033445014E+000 0.364242983277493E+000 0.000000000000000E+000
 0.267787317245899E+000 0.358095790057897E+000 0.000000000000000E+000
 0.289796410792034E+000 0.300414294603983E+000 0.000000000000000E+000
 0.274503756719177E+000 0.737152390322435E-001 0.000000000000000E+000
 0.343750000000000E+000 0.183159722222222E+000 0.000000000000000E+000
 0.246744791666667E+000 0.146267361111111E+000 0.000000000000000E+000
 0.485980902777778E+000 0.146267361111111E+000 0.000000000000000E+000
 0.302262721771688E+000 0.146267361111111E+000 0.000000000000000E+000
 0.274503756719177E+000 0.197313658770435E+000 0.000000000000000E+000
 0.375000000000000E+000 0.000000000000000E+000 0.000000000000000E+000
 0.420862160086615E+000 0.187832617434252E+000 0.000000000000000E+000
 0.384683294119816E+000 0.146267361111111E+000 0.000000000000000E+000
 0.330565923051619E+000 0.413335216176427E+000 0.000000000000000E+000
 0.352621063931298E+000 0.818811625318066E+000 0.000000000000000E+000
 0.312179705605879E+000 0.796288985503351E+000 0.000000000000000E+000
 0.500000000000000E+000 0.828697389616904E+000 0.000000000000000E+000
 0.427559261986282E+000 0.805138192500353E+000 0.000000000000000E+000
 0.399035374849065E+000 0.860999763838749E+000 0.000000000000000E+000
 0.312500000000000E+000 0.000000000000000E+000 0.000000000000000E+000
 0.187500000000000E+000 0.820606518817204E+000 0.000000000000000E+000
 0.466707069430364E+000 0.898575881689250E+000 0.000000000000000E+000
 0.511172798160702E+000 0.257526753061783E+000 0.000000000000000E+000
 0.453250172578119E+000 0.849294180402265E+000 0.000000000000000E+000
 0.937500000000000E-001 0.504496261452806E-001 0.000000000000000E+000
 0.403162177800535E+000 0.933291523780214E+000 0.000000000000000E+000
 0.437500000000000E+000 0.100000000000000E+001 0.000000000000000E+000
 0.312500000000000E+000 0.934315683855312E+000 0.000000000000000E+000
 0.453353205989905E+000 0.949647808263675E+000 0.000000000000000E+000
 0.358054120979715E+000 0.953547171775243E+000 0.000000000000000E+000
 0.325154404090345E+000 0.873991089312954E+000 0.000000000000000E+000
 0.367644435624882E+000 0.899055397729593E+000 0.000000000000000E+000
 0.236990017361111E+000 0.801449092741935E+000 0.000000000000000E+000
 0.443167922913219E+000 0.252288460541578E+000 0.000000000000000E+000
 0.477263196714215E+000 0.204401840413902E+000 0.000000000000000E+000
 0.562394794036017E+000 0.187447086349591E+000 0.000000000000000E+000
 0.625000000000000E+000 0.375000000000000E+000 0.000000000000000E+000
 0.407024191230044E+000 0.312500000000000E+000 0.000000000000000E+000
 0.474084945258901E+000 0.294963270028168E+000 0.000000000000000E+000
 0.216342369774119E+000 0.930487241414522E-001 0.000000000000000E+000
 0.157072243143605E+000 0.162201579117130E+000 0.000000000000000E+000
 0.187500000000000E+000 0.000000000000000E+000 0.000000000000000E+000
 0.174352819470591E+000 0.117036261141583E+000 0.000000000000000E+000
 0.125000000000000E+000 0.000000000000000E+000 0.000000000000000E+000
 0.218750000000000E+000 0.413079239859885E-001 0.000000000000000E+000
 0.131982343008202E+000 0.962324019836500E-001 0.000000000000000E+000
 0.866442243142230E-001 0.109366815743071E+000 0.000000000000000E+000
 0.000000000000000E+000 0.125000000000000E+000 0.000000000000000E+000
 0.156250000000000E+000 0.557461246091935E-001 0.000000000000000E+000
 0.343473007945752E+000 0.889135573360382E-001 0.000000000000000E+000
 0.316206161479800E+000 0.485604570335434E-001 0.000000000000000E+000
 0.430629647389619E+000 0.697713778434944E-001 0.000000000000000E+000
 0.391175490408355E+000 0.981202752650288E-001 0.000000000000000E+000
 0.444501950008550E+000 0.736368377006958E+000 0.000000000000000E+000
 0.398829470438439E+000 0.687500000000000E+000 0.000000000000000E+000
 0.513688817046671E+000 0.757625009132424E+000 0.000000000000000E+000
 0.625000000000000E+000 0.500000000000000E+000 0.000000000000000E+000
 0.473588841595499E+000 0.786756047776317E+000 0.000000000000000E+000
 0.478860669310979E+000 0.411527234375853E+000 0.000000000000000E+000
 0.572911532233985E+000 0.805885984489640E+000 0.000000000000000E+000
 0.447298813474571E+000 0.682006891579307E+000 0.000000000000000E+000
 0.504019394669429E+000 0.534902916754864E+000 0.000000000000000E+000
 0.486274863958833E+000 0.352843653662708E+000 0.000000000000000E+000
 0.551332894747653E+000 0.390873360445252E+000 0.000000000000000E+000
 0.433027718644055E+000 0.375926460599989E+000 0.000000000000000E+000
 0.437992666628316E+000 0.468750000000000E+000 0.000000000000000E+000
 0.421394775819071E+000 0.423093236096220E+000 0.000000000000000E+000
 0.501785840486804E+000 0.471105361968983E+000 0.000000000000000E+000
 0.433650269193003E+000 0.539110962574808E+000 0.000000000000000E+000
 0.559767288621728E+000 0.501013305633588E+000 0.000000000000000E+000
 0.473047166828055E+000 0.607447789310414E+000 0.000000000000000E+000
 0.551301338206151E+000 0.446268697831009E+000 0.000000000000000E+000
 0.625000000000000E+000 0.625000000000000E+000 0.000000000000000E+000
[...]
CELL_DATA         2368
SCALARS tdens double 1
LOOKUP_TABLE default
 0.253670432359580E-002
 0.325555684526979E-002
 0.165988435460938E-002
 0.255079961347702E-002
 0.868755541234371E-003
 0.998942182117282E-003
 0.933744061909198E-003
 0.931730683537719E-003
 0.207549190791692E-001
 0.430900173691082E-001
 0.258392892859427E-001
 0.230226586473516E-001
 0.203083477244146E-001
 0.250082753127087E-001
 0.202212565824601E-001
 0.202675231304178E-001
 0.655426386140814E-001
 0.296386185884881E-001
 0.511530129308724E-001
 0.510872926523540E-001
 0.371354180077938E-003
 0.354378679899023E-003
 0.357405051662699E-003
 0.361261412240337E-003
 0.715928840879469E-003
 0.979745998998448E-003
 0.731978024029433E-003
 0.733518878311870E-003
 0.129721608257546E-001
 0.132047719498590E-001
 0.165541293491447E-001
 0.141341089822433E-001
 0.204538715707854E-001
 0.310827272564412E-001
 0.184432103257816E-001
 0.206752679165105E-001
 0.946774394625462E-003
 0.889351369706537E-003
 0.973672161497306E-003
 0.932207820904138E-003
 0.995289867335943E-003
 0.107216640879525E-002
 0.112779293137735E-002
 0.105855473890284E-002
 0.344340660736610E-002
 0.292758903366993E-002
 0.227842210974235E-002
 0.276368807749124E-002
 0.642662839690240E-001
 0.328098892550709E-001
 0.293338821402636E-001
 0.351449423025742E-001
 0.651317359847630E-002
 0.593115921916051E-002
 0.926907912206066E-002
 0.655937726793887E-002
 0.349935914101103E-003
 0.343003420049904E-003
 0.350365478905177E-003
 0.346215518923046E-003
 0.120373404596364E-002
 0.140734757575530E-002
 0.124169432647716E-002
 0.129291191171689E-002
 0.172920963171796E-002
 0.144027286115359E-002
 0.179535833106493E-002
 0.163282492830173E-002
 0.444405017792416E-003
 0.468103157919401E-003
 0.454244088727584E-003
 0.451938134668577E-003
 0.435269706144267E-003
 0.447478548134176E-003
 0.422749668637318E-003
 0.422530025875426E-003
 0.158607239697904E-001
 0.158099141964426E-001
 0.137799835736935E-001
 0.152728763450589E-001
 0.112761816908037E-001
 0.229927250183260E-001
 0.107369386398831E-001
 0.121340117601619E-001
 0.842275235926773E-003
 0.664397616957999E-003
 0.690238918966273E-003
 0.712588699253239E-003
 0.268549651769695E-001
 0.300979095487123E-001
 0.120430778590785E-001
 0.142167302266054E-001
 0.444764146114552E-003
 0.439723608379804E-003
 0.467468371117203E-003
 0.450249733613547E-003
 0.649142308663714E-001
 0.121789689883143E+000
 0.145647546145921E+000
 0.104892154076252E+000
 0.224649751125578E-001
 0.253996370224661E-001
 0.320283499533419E-001
 0.230530251593637E-001
 0.475856932168760E-003
 0.455017012988843E-003
 0.478593460504901E-003
 0.467177016303594E-003
 0.461577199067344E-003
 0.465743387836207E-003
 0.505275098478315E-003
 0.477194583902409E-003
 0.560223195429247E-003
 0.584842764595637E-003
 0.540036716587070E-003
 0.561837017818383E-003
 0.365463656591457E-002
 0.437695927163572E-002
 0.637924297940215E-002
 0.474125806846895E-002
 0.109612361125387E-001
 0.779000971997386E-002
 0.113646602546303E-001
 0.105026966430983E-001
 0.866795672239285E-003
 0.612416272287442E-003
 0.672434672322921E-003
 0.686334824371060E-003
 0.537101722733000E-003
 0.544802110531840E-003
 0.539577705048507E-003
 0.540842571032945E-003
 0.253388203695278E-001
 0.219811908023831E-001
 0.228887110356239E-001
 0.219616232689431E-001
 0.624133327672460E-003
 0.569895854113505E-003
 0.602143044243651E-003
 0.597239024468287E-003
 0.646781558644887E-003
 0.613754238657623E-003
 0.910754825848529E-003
 0.686669466042585E-003
 0.542171303042066E-003
 0.545981778175853E-003
 0.559253767652663E-003
 0.547911357814770E-003
 0.543508545943076E-003
 0.540250533896045E-003
 0.540652424981723E-003
 0.541813881206854E-003
 0.512560190372648E-003
 0.436955363603986E-003
 0.502085063771735E-003
 0.473509483917139E-003
 0.730590179663620E-002
 0.296272419135314E-002
 0.170332835380714E-002
 0.302445995939662E-002
 0.140848598492788E-001
 0.374490440017975E-002
 0.179435159284233E-001
 0.693373127113081E-002
 0.220308002342003E-001
 0.356719452612849E-001
 0.650028043975212E-001
 0.649155724131728E-001
 0.280654657137866E-002
 0.967470599700891E-003
 0.521818185419478E-003
 0.109979164566034E-002
 0.953139631354854E-001
 0.480569468924365E-001
 0.692294022054164E-001
 0.453603462340401E-001
 0.281896626260781E-001
 0.232914714864227E-001
 0.343288896333433E-001
 0.322814272922121E-001
 0.138102542254671E-002
 0.139536415775785E-002
 0.876351234972619E-002
 0.433251161923462E-002
 0.569779207205444E-003
 0.541178073516990E-003
 0.532912525352118E-003
 0.544865954445427E-003
 0.450297658781216E-002
 0.319881067669278E-002
 0.376824933350758E-002
 0.386650057000088E-002
 0.539231856981157E-003
 0.544970689858417E-003
 0.537558551055044E-003
 0.539008710802707E-003
 0.549814632994567E-003
 0.553183635471428E-003
 0.531181817469658E-003
 0.538532013008677E-003
 0.165525886985183E-002
 0.141370510021563E-002
 0.619605705107613E-002
 0.339986374767441E-002
 0.130222840238060E-002
 0.117950554857638E-002
 0.556106256603394E-002
 0.133904362517480E-002
 0.585270791070339E-002
 0.159817494243976E-001
 0.297514837261466E-002
 0.966710870218132E-002
 0.151637806648227E-001
 0.106349302177013E-001
 0.146595553161159E-001
 0.113305153888604E-001
 0.104900113851879E-001
 0.438158335135907E-002
 0.336583404261405E-002
 0.475934376656230E-002
 0.134995320865350E-001
 0.431975647029747E-002
 0.633105987061218E-002
 0.869886528311226E-002
 0.969876382020829E-001
 0.552584635627878E-001
 0.117087244158491E+000
 0.118213956527199E+000
 0.547674546047728E-003
 0.527876529619924E-003
 0.533052862240781E-003
 0.538325193524137E-003
 0.620859458055125E-001
 0.604331849132864E-001
 0.138663455317188E+000
 0.571362279488890E-001
 0.147769949331260E-002
 0.178138311680751E-002
 0.878113877768376E-003
 0.128888954678825E-002
 0.110352298926793E-002
 0.104459343460913E-002
 0.120387838043742E-002
 0.110557272060559E-002
 0.219940373357169E-002
 0.258450998547452E-002
 0.325562618732240E-002
 0.268265736767087E-002
 0.472076658711216E-001
 0.503940273921485E-001
 0.250560483902501E-001
 0.476596142921165E-001
 0.217107679721054E-002
 0.205188056050225E-002
 0.263616914314591E-002
 0.222219637077603E-002
 0.266271316775503E-001
 0.491241971283423E-001
 0.473552515868239E-001
 0.444336600379266E-001
 0.247211022359058E-001
 0.326756290304706E-001
 0.186187401765062E-001
 0.279512880999798E-001
 0.928248637821807E-002
 0.160278920330060E-001
 0.806616705503831E-002
 0.962741364323388E-002
 0.980969949547514E-002
 0.148205549330556E-001
 0.110885114273481E-001
 0.117609684527256E-001
 0.478430885051800E-002
 0.112449766430928E-001
 0.117954941991646E-001
 0.118095816728472E-001
 0.137760152232690E-002
 0.196768462691623E-002
 0.226532022420649E-002
 0.177793611189705E-002
 0.616446380144119E-003
 0.576027473391276E-003
 0.639437966270785E-003
 0.602333376349174E-003
 0.216678748837722E-001
 0.114663073860791E-001
 0.819796154591778E-002
 0.967830131148823E-002
 0.204021702942365E-001
 0.147863810738506E-001
 0.209346705052780E-001
 0.201872571795957E-001
 0.172473481723043E-001
 0.169548465707800E-001
 0.132047327298025E-001
 0.182890237081940E-001
 0.545442882300164E-002
 0.250799341595988E-002
 0.302489430286997E-002
 0.327235997620474E-002
 0.874512114048289E-002
 0.641201027758558E-002
 0.209868982550432E-001
 0.808937923813649E-002
 0.111472929637215E+000
 0.124180366567760E+000
 0.190136030398862E+000
 0.143503318533493E+000
 0.127014271744696E-001
 0.265906196466987E-001
 0.319210793056816E-001
 0.295190024736224E-001
 0.233469226313063E-001
 0.483425092908879E-001
 0.380727089876434E-001
 0.370057807268229E-001
 0.791483653255960E-002
 0.144235680846109E-002
 0.610868805331707E-002
 0.498161207301948E-002
 0.708470081053425E-003
 0.609775275509686E-003
 0.899182875142073E-003
 0.708832041112235E-003
 0.560083434740615E-003
 0.532664739421144E-003
 0.597477420611743E-003
 0.559436403639735E-003
 0.548163360868853E-001
 0.496568076285424E-001
 0.572828407365008E-001
 0.567698885824068E-001
 0.200499656884731E-001
 0.123432056519608E-001
 0.222054569813155E-001
 0.214491087961015E-001
 0.104508076694847E-001
 0.149869334409757E-001
 0.136423482763428E-001
 0.122479159720803E-001
 0.509850809849314E-002
 0.123578755789372E-001
 0.193582604928217E-001
 0.132855703217348E-001
 0.970235214589208E-002
 0.481020058499958E-002
 0.286214500428083E-002
 0.518724638838171E-002
 0.358262660759402E-002
 0.364432360016668E-002
 0.109526139130223E-001
 0.396129829306432E-002
 0.166800575754770E-001
 0.575256577437088E-002
 0.179139949911088E-001
 0.203999752387321E-001
 0.102514834672442E-001
 0.182518729784565E-001
 0.192489459287874E-001
 0.216293257007235E-001
 0.845988364618565E-003
 0.143533772210288E-002
 0.207156244863775E-002
 0.132938699280964E-002
 0.462391314060919E-001
 0.413064907922914E-001
 0.418866468049941E-001
 0.468613072864593E-001
 0.568168652940815E-002
 0.994069131145042E-002
 0.830371913055812E-002
 0.771606996635775E-002
 0.201798201830132E-001
 0.216219420537385E-001
 0.260898676440275E-001
 0.235025038783695E-001
 0.497239524313462E-002
 0.834082218595863E-001
 0.162963343823608E-001
 0.701718030852960E-002
 0.212914100656899E-002
 0.153385577288269E-002
 0.174819146812337E-002
 0.179414831470352E-002
 0.783754297306380E-002
 0.605822648274100E-002
 0.770878421847369E-002
 0.648223473194373E-002
 0.273544048579569E-001
 0.307792780874631E-001
 0.321963804546890E-001
 0.278750200947836E-001
 0.939334196543377E-001
 0.127524222129766E+000
 0.279813656948493E+000
 0.124446892671043E+000
 0.219499735057903E-001
 0.104818491023017E-001
 0.589111550142204E-002
 0.920520669140497E-002
 0.206844050306242E-002
 0.184642709123564E-002
 0.794224312995130E-003
 0.128541060063056E-002
 0.677184710097291E-001
 0.578221300558190E-001
 0.249700044707990E-001
 0.467915040868511E-001
 0.490149519202217E-003
 0.515105213280409E-003
 0.521925741984710E-003
 0.505645525000417E-003
 0.545599756257469E-003
 0.591433489106391E-003
 0.532828012085303E-003
 0.554472604116497E-003
 0.846388391007548E-002
 0.168087532079779E-001
 0.187035383335673E-001
 0.175664861784276E-001
 0.555781172124065E-003
 0.545374405164263E-003
 0.540691542418310E-003
 0.547143951738819E-003
 0.104205161327587E-001
 0.172768973003171E-001
 0.907043795570739E-002
 0.120418377241157E-001
 0.113204804527657E-001
 0.158474060239829E-001
 0.158818938111790E-001
 0.151931368822662E-001
 0.283835107831952E-001
 0.239924502408253E-001
 0.213182788401913E-001
 0.267925921455150E-001
 0.730373365482103E-003
 0.108584053404513E-002
 0.386437791207562E-002
 0.204626300733394E-002
 0.366853829225737E-002
 0.657372166861552E-002
 0.472036017532567E-002
 0.461224849552267E-002
 0.999370802559220E-002
 0.664794514872729E-002
 0.929790007442090E-002
 0.867540932853604E-002
 0.647412348906351E-002
 0.838572607921540E-002
 0.107075072494042E-001
 0.857948127755393E-002
 0.143343162727980E-001
 0.177475388321559E-001
 0.182318752128002E-001
 0.164405860787635E-001
 0.266074284385708E-002
 0.265242243166881E-002
 0.327276771196798E-002
 0.276075242614158E-002
 0.195118566125569E-002
 0.190383455498160E-002
 0.252105339054880E-002
 0.204502653780275E-002
 0.163314616312284E-001
 0.869421282271071E-002
 0.341857099875695E-002
 0.562596187414575E-002
 0.291308599507377E-001
 0.166138733206634E-001
 0.182314790713416E-001
 0.193577133059639E-001
 0.632250858621208E-002
 0.121142910764869E-001
 0.108623209366285E-001
 0.955840195854466E-002
 0.105195395297908E-001
 0.197642731025037E-001
 0.160361189109497E-001
 0.181675665604075E-001
 0.367075201347850E-001
 0.395842907579421E-001
 0.269615529629349E-001
 0.301564921108321E-001
 0.534742290772679E-001
 0.637782596525458E-001
 0.505324814092353E-001
 0.513390988362816E-001
 0.118513031975384E-001
 0.145484265085640E-001
 0.222251117473118E-001
 0.148889571818977E-001
 0.271769969575214E-001
 0.172335061333150E-001
 0.310461691600212E-001
 0.268875957789857E-001
 0.133599380593334E-002
 0.128283751501221E-002
 0.152611437216373E-002
 0.136248200979559E-002
 0.198142988123731E-002
 0.244638355772073E-002
 0.187693300251102E-002
 0.206452988113392E-002
 0.328514656970225E-001
 0.482023072664596E-001
 0.117315547315795E-001
 0.363337283743803E-001
 0.147868149688529E-002
 0.213162447288924E-002
 0.146822941715197E-002
 0.164083381754773E-002
 0.107942943645033E-001
 0.163585722648548E-002
 0.150063482581064E-002
 0.397700024360546E-002
 0.508151982720397E-003
 0.418600784541479E-003
 0.580809115897362E-003
 0.481998395130182E-003
 0.144245051591724E-002
 0.167546492723376E-002
 0.145543177509746E-002
 0.151193538386775E-002
 0.223303471061575E-002
 0.193305313411859E-002
 0.175716242509663E-002
 0.193644966095804E-002
 0.682709419125033E-002
 0.401124914338276E-002
 0.699273044830033E-002
 0.584875786444175E-002
 0.378233223635957E-002
 0.182850169236968E-002
 0.152527194325877E-002
 0.189687110907967E-002
 0.522150554223813E-002
 0.363785494632892E-002
 0.641059462588045E-002
 0.464814613767311E-002
 0.566070991258497E-002
 0.328158966287824E-002
 0.337999291648150E-002
 0.375486233656247E-002
 0.604146146017387E-003
 0.607832364622725E-003
 0.712697373851919E-003
 0.629455268728041E-003
 0.688716710346597E-002
 0.452564097524186E-002
 0.605358436458316E-002
 0.606742124115660E-002
 0.261221307151565E-002
 0.253025286291447E-002
 0.196919948443419E-002
 0.234884361019617E-002
 0.123516086573740E-002
 0.158804013770576E-002
 0.150511047538838E-002
 0.143133098101448E-002
 0.154659535506749E-001
 0.107697536981751E-001
 0.133152460575884E-001
 0.136329280770166E-001
 0.134167325657280E-002
 0.168905538023780E-002
 0.161875093019123E-002
 0.153811281559990E-002
 0.111505448862288E-001
 0.730836696100077E-002
 0.102232608295323E-001
 0.102165428376495E-001
 0.156436167283966E-002
 0.139749062003755E-002
 0.135058372077303E-002
 0.143784057292917E-002
 0.171436615325429E-001
 0.140970533305599E-001
 0.165940560769799E-001
 0.172006216048594E-001
 0.313989751494660E-002
 0.409862074996218E-002
 0.278584920807958E-002
 0.320848855462925E-002
 0.155915044673151E-001
 0.103199374832514E-001
 0.149737365598569E-001
 0.147841178144020E-001
 0.185577507844833E-001
 0.204428329216477E-001
 0.219812744969599E-001
 0.200946083065044E-001
 0.107352794002050E-001
 0.156623827928403E-001
 0.140444250176654E-001
 0.139725372662742E-001
 0.363969465701820E-002
 0.568750680907660E-002
 0.273067396624488E-002
 0.347438877636082E-002
 0.180903809464583E-001
 0.183852500724445E-001
 0.214669629060501E-001
 0.189798264715674E-001
 0.409591378988476E-002
 0.359470304381702E-002
 0.286592698671564E-002
 0.354332010479829E-002
 0.792438907101465E-002
 0.105608475172567E-001
 0.116141462943877E-001
 0.104111102564215E-001
 0.589827982484312E-003
 0.668722673283870E-003
 0.875138632979070E-003
 0.710590076466982E-003
 0.178287129107181E-002
 0.187768488035335E-002
 0.212575516868650E-002
 0.196097767113216E-002
 0.431209438139368E-003
 0.396637323831487E-003
 0.425840117273268E-003
 0.417882590852701E-003
 0.953262196110441E-002
 0.697004033368601E-002
 0.639569624789623E-002
 0.716256437293294E-002
 0.105533361865301E-002
 0.686412617881880E-003
 0.799465592518406E-003
 0.830132350286482E-003
 0.846552306574352E-002
 0.678190642025260E-002
 0.112722996234048E-001
 0.787760824457486E-002
 0.195888214966808E-002
 0.208990930299847E-002
 0.244254613278587E-002
 0.213633429101888E-002
 0.410807443972491E-003
 0.427303756799163E-003
 0.488685144652178E-003
 0.443328506551321E-003
 0.562254166854616E-002
 0.642336318085839E-002
 0.107765088093695E-001
 0.716511906240959E-002
 0.512183519904358E-002
 0.574346716198213E-002
 0.428599691579176E-002
 0.488187490734011E-002
 0.124152822654632E-001
 0.140235114584754E-001
 0.931573231069961E-002
 0.135411080897348E-001
 0.240564939804893E-002
 0.219835633270056E-002
 0.233504728357002E-002
 0.227065870508751E-002
 0.102729014921005E-002
 0.111595495134560E-002
 0.121511173116714E-002
 0.111897010400630E-002
 0.426595242838781E-002
 0.132227185678899E-002
 0.163710415705872E-002
 0.177473507845426E-002
 0.187735255212940E-002
 0.216681027053686E-002
 0.207941517068931E-002
 0.201195386243867E-002
 0.482311392068248E-002
 0.712823639221251E-002
 0.827149409573500E-002
 0.666747969878442E-002
 0.802764169353574E-003
 0.960419481409433E-003
 0.826573340632595E-003
 0.866975338848546E-003
 0.236990013217090E-002
 0.222552715291367E-002
 0.239015686206075E-002
 0.233338789845038E-002
 0.145992587332006E-002
 0.171395774152038E-002
 0.168360565533141E-002
 0.158405301051330E-002
 0.204197849831481E-002
 0.293946258889056E-002
 0.273967839200033E-002
 0.262308358929925E-002
 0.549565982045743E-002
 0.461702101230873E-002
 0.774582523434356E-002
 0.575927564977814E-002
 0.221521783535320E-002
 0.290359746792250E-002
 0.193958679370707E-002
 0.226217021762046E-002
 0.206294223357622E-002
 0.261069613685949E-002
 0.240774378271168E-002
 0.233394500151152E-002
 0.382408756737138E-002
 0.452380647472415E-002
 0.337820489014387E-002
 0.380059118679156E-002
 0.478452906396902E-002
 0.118864674823446E-001
 0.763494107027887E-002
 0.869261079298528E-002
 0.155209813743699E-001
 0.189625480487800E-001
 0.912390057647226E-002
 0.182665049924748E-001
 0.153914324925745E-002
 0.165862230573213E-002
 0.132397366253430E-002
 0.151288586223061E-002
 0.241055214030991E-002
 0.201364783962839E-002
 0.252555854382011E-002
 0.231929924496370E-002
 0.116831295554128E-002
 0.141507828580173E-002
 0.123142069260977E-002
 0.125511531780928E-002
 0.185270081181299E-002
 0.219005026350808E-002
 0.173408167198077E-002
 0.190790820710754E-002
 0.724271573322493E-003
 0.786689770125512E-003
 0.779635985575543E-003
 0.753827532660997E-003
 0.978349041726828E-003
 0.971669320461880E-003
 0.109125787028370E-002
 0.101502048295631E-002
 0.310255667725518E+000
 0.258765238572291E+000
 0.631421318982870E-001
 0.301764760240561E+000
 0.259584745889594E-001
 0.769571032237654E-001
 0.765853158990289E-001
 0.742510207988157E-001
 0.414412279976839E-002
 0.310419324492123E-002
 0.466394997785617E-002
 0.388926228484361E-002
 0.437138220222282E-002
 0.294518590248112E-002
 0.307806829435996E-002
 0.327573332044888E-002
 0.317317254801900E-002
 0.290567342017775E-002
 0.382007692390512E-002
 0.317188723006593E-002
 0.217377080428205E-001
 0.201226559867349E-001
 0.168838870764388E-001
 0.182861643056524E-001
 0.725435029181139E-002
 0.263077179111285E-002
 0.256710766389969E-002
 0.282864916103020E-002
 0.769694913513908E-003
 0.745164491571471E-003
 0.652844133462667E-003
 0.717199184383744E-003
 0.166010953192908E-001
 0.247882246225419E-001
 0.145190007274118E-001
 0.241836035180238E-001
 0.539897329148842E-003
 0.561996063749049E-003
 0.435512950874586E-003
 0.488820500683482E-003
 0.741683535311423E-003
 0.123511253023967E-002
 0.135588160692135E-002
 0.105117846437584E-002
 0.913919110178304E-003
 0.117966717968003E-002
 0.122573604378331E-002
 0.108961484034192E-002
 0.785101081416231E-002
 0.233782589553323E-002
 0.610270028546558E-002
 0.674834754142026E-002
 0.377304353867011E-003
 0.357574884119103E-003
 0.390615772795134E-003
 0.371533108340125E-003
 0.522070265916537E-003
 0.437166898249668E-003
 0.410779401634670E-003
 0.456410424865763E-003
 0.894360854235758E-003
 0.105653932572362E-002
 0.109122145931319E-002
 0.100076534937850E-002
 0.460578620516282E-003
 0.547303626709344E-003
 0.530830096272603E-003
 0.504077888615902E-003
 0.717277385410513E-003
 0.643062730000243E-003
 0.120974729186345E-002
 0.795168378764039E-003
 0.890142060386536E-003
 0.969453694598876E-003
 0.102138747230492E-002
 0.953430975488673E-003
 0.349130428057989E-003
 0.352874599403873E-003
 0.362404874533194E-003
 0.353259556378283E-003
 0.116525624623818E-002
 0.104438251037154E-002
 0.108495657390184E-002
 0.110309390336397E-002
 0.656539075311337E-003
 0.214684306190781E-002
 0.259600411514967E-002
 0.135526383732277E-002
 0.845391210336217E-003
 0.162635388941448E-002