# vtk DataFile Version 3.0
Unstructured Grid
ASCII
DATASET UNSTRUCTURED_GRID
FIELD FieldData 1
TIME 1 1 float
  0.144375E+02
POINTS         1241 double
 0.000000000000000E+000 0.000000000000000E+000 0.000000000000000E+000
 0.100000000000000E+001 0.000000000000000E+000 0.000000000000000E+000
 0.100000000000000E+001 0.100000000000000E+001 0.000000000000000E+000
 0.000000000000000E+000 0.100000000000000E+001 0.000000000000000E+000
 0.125000000000000E+000 0.250000000000000E+000 0.000000000000000E+000
 0.375000000000000E+000 0.250000000000000E+000 0.000000000000000E+000
 0.375000000000000E+000 0.750000000000000E+000 0.000000000000000E+000
 0.125000000000000E+000 0.750000000000000E+000 0.000000000000000E+000
 0.625000000000000E+000 0.250000000000000E+000 0.000000000000000E+000
 0.875000000000000E+000 0.250000000000000E+000 0.000000000000000E+000
 0.875000000000000E+000 0.750000000000000E+000 0.000000000000000E+000
 0.625000000000000E+000 0.750000000000000E+000 0.000000000000000E+000
 0.100000000000000E+001 0.500000000000000E+000 0.000000000000000E+000
 0.000000000000000E+000 0.500000000000000E+000 0.000000000000000E+000
 0.500000000000000E+000 0.000000000000000E+000 0.000000000000000E+000
 0.125000000000000E+000 0.500000000000000E+000 0.000000000000000E+000
 0.000000000000000E+000 0.750000000000000E+000 0.000000000000000E+000
 0.000000000000000E+000 0.250000000000000E+000 0.000000000000000E+000
 0.000000000000000E+000 0.875000000000000E+000 0.000000000000000E+000
 0.308529810216860E+000 0.500255759132561E+000 0.000000000000000E+000
 0.250000000000000E+000 0.000000000000000E+000 0.000000000000000E+000
 0.125000000000000E+000 0.375000000000000E+000 0.000000000000000E+000
 0.125000000000000E+000 0.625000000000000E+000 0.000000000000000E+000
 0.000000000000000E+000 0.375000000000000E+000 0.000000000000000E+000
 0.000000000000000E+000 0.437500000000000E+000 0.000000000000000E+000
 0.625000000000000E-001 0.406250000000000E+000 0.000000000000000E+000
 0.125000000000000E+000 0.437500000000000E+000 0.000000000000000E+000
 0.216796875000000E+000 0.382812500000000E+000 0.000000000000000E+000
 0.183593750000000E+000 0.468750000000000E+000 0.000000000000000E+000
 0.375000000000000E+000 0.500000000000000E+000 0.000000000000000E+000
 0.250000000000000E+000 0.468750000000000E+000 0.000000000000000E+000
 0.625000000000000E-001 0.481770833333333E+000 0.000000000000000E+000
 0.184176834650379E+000 0.540399924344460E+000 0.000000000000000E+000
 0.216796875000000E+000 0.432195490056818E+000 0.000000000000000E+000
 0.168571309840426E+000 0.406250000000000E+000 0.000000000000000E+000
 0.125000000000000E+000 0.687500000000000E+000 0.000000000000000E+000
 0.255828208111702E+000 0.540763692652926E+000 0.000000000000000E+000
 0.375000000000000E+000 0.375000000000000E+000 0.000000000000000E+000
 0.375000000000000E+000 0.625000000000000E+000 0.000000000000000E+000
 0.220170948184400E+000 0.507406813570504E+000 0.000000000000000E+000
 0.219557967718869E+000 0.628145457476636E+000 0.000000000000000E+000
 0.125000000000000E+000 0.562500000000000E+000 0.000000000000000E+000
 0.000000000000000E+000 0.625000000000000E+000 0.000000000000000E+000
 0.375000000000000E+000 0.437500000000000E+000 0.000000000000000E+000
 0.280323303380492E+000 0.407503995028409E+000 0.000000000000000E+000
 0.375000000000000E+000 0.562500000000000E+000 0.000000000000000E+000
 0.219817452482738E+000 0.577034793653623E+000 0.000000000000000E+000
 0.885901781235304E-001 0.531250000000000E+000 0.000000000000000E+000
 0.312500000000000E+000 0.250000000000000E+000 0.000000000000000E+000
 0.297268942273640E+000 0.626076494243052E+000 0.000000000000000E+000
 0.168732375746058E+000 0.593750000000000E+000 0.000000000000000E+000
 0.173890458776596E+000 0.343750000000000E+000 0.000000000000000E+000
 0.183963193611824E+000 0.278873942859495E+000 0.000000000000000E+000
 0.250000000000000E+000 0.250000000000000E+000 0.000000000000000E+000
 0.237162500098357E+000 0.317347265649589E+000 0.000000000000000E+000
 0.250000000000000E+000 0.750000000000000E+000 0.000000000000000E+000
 0.292902283271084E+000 0.575476271929907E+000 0.000000000000000E+000
 0.125000000000000E+000 0.312500000000000E+000 0.000000000000000E+000
 0.585937500000000E-001 0.335937500000000E+000 0.000000000000000E+000
 0.000000000000000E+000 0.312500000000000E+000 0.000000000000000E+000
 0.336992576921227E+000 0.687500000000000E+000 0.000000000000000E+000
 0.312500000000000E+000 0.750000000000000E+000 0.000000000000000E+000
 0.270599706447422E+000 0.686880677247748E+000 0.000000000000000E+000
 0.500000000000000E+000 0.100000000000000E+001 0.000000000000000E+000
 0.250000000000000E+000 0.100000000000000E+001 0.000000000000000E+000
 0.375000000000000E+000 0.100000000000000E+001 0.000000000000000E+000
 0.281250000000000E+000 0.830729166666667E+000 0.000000000000000E+000
 0.343750000000000E+000 0.312500000000000E+000 0.000000000000000E+000
 0.318389033445014E+000 0.364242983277493E+000 0.000000000000000E+000
 0.267787317245899E+000 0.358095790057897E+000 0.000000000000000E+000
 0.289796410792034E+000 0.300414294603983E+000 0.000000000000000E+000
 0.274503756719177E+000 0.737152390322435E-001 0.000000000000000E+000
 0.343750000000000E+000 0.183159722222222E+000 0.000000000000000E+000
 0.246744791666667E+000 0.146267361111111E+000 0.000000000000000E+000
 0.485980902777778E+000 0.146267361111111E+000 0.000000000000000E+000
 0.302262721771688E+000 0.146267361111111E+000 0.000000000000000E+000
 0.274503756719177E+000 0.197313658770435E+000 0.000000000000000E+000
 0.375000000000000E+000 0.000000000000000E+000 0.000000000000000E+000
 0.420862160086615E+000 0.187832617434252E+000 0.000000000000000E+000
 0.384683294119816E+000 0.146267361111111E+000 0.000000000000000E+000
 0.330565923051619E+000 0.413335216176427E+000 0.000000000000000E+000
 0.352621063931298E+000 0.818811625318066E+000 0.000000000000000E+000
 0.312179705605879E+000 0.796288985503351E+000 0.000000000000000E+000
 0.500000000000000E+000 0.828697389616904E+000 0.000000000000000E+000
 0.427559261986282E+000 0.805138192500353E+000 0.000000000000000E+000
 0.399035374849065E+000 0.860999763838749E+000 0.000000000000000E+000
 0.312500000000000E+000 0.000000000000000E+000 0.000000000000000E+000
 0.187500000000000E+000 0.820606518817204E+000 0.000000000000000E+000
 0.466707069430364E+000 0.898575881689250E+000 0.000000000000000E+000
 0.511172798160702E+000 0.257526753061783E+000 0.000000000000000E+000
 0.453250172578119E+000 0.849294180402265E+000 0.000000000000000E+000
 0.937500000000000E-001 0.504496261452806E-001 0.000000000000000E+000
 0.403162177800535E+000 0.933291523780214E+000 0.000000000000000E+000
 0.437500000000000E+000 0.100000000000000E+001 0.000000000000000E+000
 0.312500000000000E+000 0.934315683855312E+000 0.000000000000000E+000
 0.453353205989905E+000 0.949647808263675E+000 0.000000000000000E+000
 0.358054120979715E+000 0.953547171775243E+000 0.000000000000000E+000
 0.325154404090345E+000 0.873991089312954E+000 0.000000000000000E+000
 0.367644435624882E+000 0.899055397729593E+000 0.000000000000000E+000
 0.236990017361111E+000 0.801449092741935E+000 0.000000000000000E+000
 0.443167922913219E+000 0.252288460541578E+000 0.000000000000000E+000
 0.477263196714215E+000 0.204401840413902E+000 0.000000000000000E+000
 0.562394794036017E+000 0.187447086349591E+000 0.000000000000000E+000
 0.625000000000000E+000 0.375000000000000E+000 0.000000000000000E+000
 0.407024191230044E+000 0.312500000000000E+000 0.000000000000000E+000
 0.474084945258901E+000 0.294963270028168E+000 0.000000000000000E+000
 0.216342369774119E+000 0.930487241414522E-001 0.000000000000000E+000
 0.157072243143605E+000 0.162201579117130E+000 0.000000000000000E+000
 0.187500000000000E+000 0.000000000000000E+000 0.000000000000000E+000
 0.174352819470591E+000 0.117036261141583E+000 0.000000000000000E+000
 0.125000000000000E+000 0.000000000000000E+000 0.000000000000000E+000
 0.218750000000000E+000 0.413079239859885E-001 0.000000000000000E+000
 0.131982343008202E+000 0.962324019836500E-001 0.000000000000000E+000
 0.866442243142230E-001 0.109366815743071E+000 0.000000000000000E+000
 0.000000000000000E+000 0.125000000000000E+000 0.000000000000000E+000
 0.156250000000000E+000 0.557461246091935E-001 0.000000000000000E+000
 0.343473007945752E+000 0.889135573360382E-001 0.000000000000000E+000
 0.316206161479800E+000 0.485604570335434E-001 0.000000000000000E+000
 0.430629647389619E+000 0.697713778434944E-001 0.000000000000000E+000
 0.391175490408355E+000 0.981202752650288E-001 0.000000000000000E+000
 0.444501950008550E+000 0.736368377006958E+000 0.000000000000000E+000
 0.398829470438439E+000 0.687500000000000E+000 0.000000000000000E+000
 0.513688817046671E+000 0.757625009132424E+000 0.000000000000000E+000
 0.625000000000000E+000 0.500000000000000E+000 0.000000000000000E+000
 0.473588841595499E+000 0.786756047776317E+000 0.000000000000000E+000
 0.478860669310979E+000 0.411527234375853E+000 0.000000000000000E+000
 0.572911532233985E+000 0.805885984489640E+000 0.000000000000000E+000
 0.447298813474571E+000 0.682006891579307E+000 0.000000000000000E+000
 0.504019394669429E+000 0.534902916754864E+000 0.000000000000000E+000
 0.486274863958833E+000 0.352843653662708E+000 0.000000000000000E+000
 0.551332894747653E+000 0.390873360445252E+000 0.000000000000000E+000
 0.433027718644055E+000 0.375926460599989E+000 0.000000000000000E+000
 0.437992666628316E+000 0.468750000000000E+000 0.000000000000000E+000
 0.421394775819071E+000 0.423093236096220E+000 0.000000000000000E+000
 0.501785840486804E+000 0.471105361968983E+000 0.000000000000000E+000
 0.433650269193003E+000 0.539110962574808E+000 0.000000000000000E+000
 0.559767288621728E+000 0.501013305633588E+000 0.000000000000000E+000
 0.473047166828055E+000 0.607447789310414E+000 0.000000000000000E+000
 0.551301338206151E+000 0.446268697831009E+000 0.000000000000000E+000
 0.625000000000000E+000 0.625000000000000E+000 0.000000000000000E+000
[...]
CELL_DATA         2368
SCALARS tdens double 1
LOOKUP_TABLE default
 0.227313194375372E-001
 0.236083399150335E-001
 0.209462343951850E-001
 0.222064900757945E-001
 0.182837009622245E-001
 0.188482693285213E-001
 0.186337411712202E-001
 0.186201429223204E-001
 0.278645181418613E-001
 0.335356460286693E-001
 0.327713980783749E-001
 0.310009694282585E-001
 0.268878644123383E-001
 0.268938983961131E-001
 0.291780565371068E-001
 0.276305474065146E-001
 0.309126559276573E-001
 0.301720523840378E-001
 0.311530663862623E-001
 0.307751036444696E-001
 0.146088934969158E-001
 0.144537888966122E-001
 0.144748675919514E-001
 0.145139790668068E-001
 0.169217775100684E-001
 0.173410354024741E-001
 0.158151105505088E-001
 0.164736447498760E-001
 0.302946362887099E-001
 0.293867342665828E-001
 0.301966843015956E-001
 0.299797586806789E-001
 0.362771826560269E-001
 0.383834315866841E-001
 0.380762538697472E-001
 0.375058073294035E-001
 0.201544507123989E-001
 0.197076735713612E-001
 0.204665970772912E-001
 0.200853126205320E-001
 0.189535283724097E-001
 0.191893351052896E-001
 0.194679685062179E-001
 0.191481306340825E-001
 0.231184501907383E-001
 0.227885052381944E-001
 0.219061694903265E-001
 0.226142903424052E-001
 0.323258206626671E-001
 0.383150400839384E-001
 0.257062800693989E-001
 0.303058456684707E-001
 0.299789582872288E-001
 0.307009438590864E-001
 0.323922818721270E-001
 0.310820490687452E-001
 0.144034679939077E-001
 0.143090468363036E-001
 0.143965750276312E-001
 0.143506515832062E-001
 0.219323750474256E-001
 0.230661918833618E-001
 0.219523725951369E-001
 0.223320830847534E-001
 0.258539359419779E-001
 0.245210925213240E-001
 0.262694278910908E-001
 0.253331312805415E-001
 0.154500962791964E-001
 0.157033574085013E-001
 0.155093847007529E-001
 0.155148470717634E-001
 0.156917877501120E-001
 0.151887647609931E-001
 0.155422565574392E-001
 0.153981901364026E-001
 0.305757725470847E-001
 0.317015597292148E-001
 0.309579809531067E-001
 0.311217610870631E-001
 0.265870038488669E-001
 0.287291038919310E-001
 0.270829216202189E-001
 0.274084554192406E-001
 0.183587036917510E-001
 0.172131645878663E-001
 0.174588686435330E-001
 0.175802494169241E-001
 0.253547178983272E-001
 0.225549770169411E-001
 0.194857816132980E-001
 0.224593927475817E-001
 0.158372098966805E-001
 0.157585903762821E-001
 0.159202196740395E-001
 0.158367690702631E-001
 0.311703253278475E-001
 0.312191643638773E-001
 0.323877307469897E-001
 0.316652652253230E-001
 0.298362571128547E-001
 0.311795425177851E-001
 0.312218470408144E-001
 0.307092747762115E-001
 0.158614471797882E-001
 0.158599938360465E-001
 0.159476528886690E-001
 0.158966401845107E-001
 0.160473003142697E-001
 0.161255065573929E-001
 0.163906154821052E-001
 0.161771750288903E-001
 0.161712031317134E-001
 0.165550298437350E-001
 0.163411165438001E-001
 0.164025614853669E-001
 0.236052650208788E-001
 0.237960501993710E-001
 0.249575319311209E-001
 0.241553030463470E-001
 0.259225139092770E-001
 0.253936024833809E-001
 0.264773697083503E-001
 0.259550858248104E-001
 0.160683186609992E-001
 0.153785097445660E-001
 0.155482385759879E-001
 0.156582564992064E-001
 0.153757151955825E-001
 0.157085802616122E-001
 0.155358654169883E-001
 0.155439714748820E-001
 0.294144824001226E-001
 0.276481139393809E-001
 0.287653100301656E-001
 0.285573536026085E-001
 0.166117901422890E-001
 0.160164110931255E-001
 0.158717043734730E-001
 0.162002097081766E-001
 0.152638429082644E-001
 0.153950173277325E-001
 0.161530849784120E-001
 0.155424186680283E-001
 0.152337844149812E-001
 0.152593356632672E-001
 0.152411272163712E-001
 0.152483139123761E-001
 0.153126747718380E-001
 0.153293819384291E-001
 0.154429126593691E-001
 0.153565176022668E-001
 0.150593528275023E-001
 0.145744177967585E-001
 0.150074987463132E-001
 0.148795293631507E-001
 0.194683393775491E-001
 0.178410313962079E-001
 0.164021051221569E-001
 0.175437401256847E-001
 0.222450679184924E-001
 0.172582822992505E-001
 0.209446677842340E-001
 0.199503162261114E-001
 0.261537540887197E-001
 0.289818941366725E-001
 0.326625374950522E-001
 0.308462533184030E-001
 0.161419272543354E-001
 0.147052707860224E-001
 0.146510908308889E-001
 0.146514451435632E-001
 0.337095081300843E-001
 0.274357505687149E-001
 0.334660880130074E-001
 0.314638432904031E-001
 0.261427600742103E-001
 0.259200540117370E-001
 0.256235663400123E-001
 0.258243145667555E-001
 0.163985575912483E-001
 0.155143816337466E-001
 0.186537815525763E-001
 0.161263209182589E-001
 0.152497424954128E-001
 0.150107561912835E-001
 0.151540807228495E-001
 0.151155667127805E-001
 0.234742587095522E-001
 0.227039007326474E-001
 0.231850125365369E-001
 0.230687367201969E-001
 0.156424365288490E-001
 0.158476687611384E-001
 0.158709083202220E-001
 0.157843400167644E-001
 0.155135153748028E-001
 0.157666425145005E-001
 0.153245236690923E-001
 0.154519024252217E-001
 0.191199523567319E-001
 0.175434464061821E-001
 0.216856637419658E-001
 0.188501595370414E-001
 0.156180287472719E-001
 0.169214934055528E-001
 0.183212499849161E-001
 0.166063991095697E-001
 0.172792167618061E-001
 0.193187909459717E-001
 0.151796163939741E-001
 0.168863589183528E-001
 0.274220813361143E-001
 0.237925828856877E-001
 0.257264321520881E-001
 0.255669331340018E-001
 0.210699163731665E-001
 0.191181994112079E-001
 0.184893259326855E-001
 0.200734759843162E-001
 0.260287066700496E-001
 0.196814998083907E-001
 0.223840096876878E-001
 0.226067651914402E-001
 0.352971145172893E-001
 0.336336332751330E-001
 0.339787306643589E-001
 0.342199247658805E-001
 0.160750998641397E-001
 0.162586245446187E-001
 0.160552245751639E-001
 0.161080349962674E-001
 0.322577918668022E-001
 0.313153185032855E-001
 0.330417259525167E-001
 0.322992822270725E-001
 0.198148599625623E-001
 0.209935279197571E-001
 0.181448367742363E-001
 0.195609207562385E-001
 0.195787058381729E-001
 0.194592360617672E-001
 0.199204925742863E-001
 0.196552491459891E-001
 0.218104186517386E-001
 0.221834077451195E-001
 0.229584853370716E-001
 0.222944625498346E-001
 0.304218295723897E-001
 0.305833853385887E-001
 0.296254492527818E-001
 0.302668873338149E-001
 0.219168998841679E-001
 0.218468471159453E-001
 0.226233546883266E-001
 0.222018245526467E-001
 0.337559001571684E-001
 0.349882484532831E-001
 0.335445525614843E-001
 0.343902273876846E-001
 0.247300197058210E-001
 0.306378102071298E-001
 0.260541034139442E-001
 0.271913392503721E-001
 0.286016677836831E-001
 0.290424449818282E-001
 0.275667670493564E-001
 0.284453298088177E-001
 0.281427502849038E-001
 0.289918217343775E-001
 0.285919133870353E-001
 0.285871456963330E-001
 0.249682830294928E-001
 0.262898296033230E-001
 0.298313966223022E-001
 0.270703884981202E-001
 0.195019534340131E-001
 0.215781164022197E-001
 0.224714459627640E-001
 0.208743025996854E-001
 0.167793703057949E-001
 0.162456370542378E-001
 0.169074132578304E-001
 0.165386259512063E-001
 0.300631420137163E-001
 0.275923582277291E-001
 0.267275137047030E-001
 0.281504174194410E-001
 0.305234355085076E-001
 0.276349133748274E-001
 0.301161164720231E-001
 0.294083921153550E-001
 0.306148421222691E-001
 0.293289699861133E-001
 0.268999306502271E-001
 0.288083436957884E-001
 0.206597421734621E-001
 0.182982730917499E-001
 0.186260170622152E-001
 0.186262043937465E-001
 0.212022370822957E-001
 0.199768315449304E-001
 0.236847710000867E-001
 0.217052595513139E-001
 0.315346257684041E-001
 0.323344934947743E-001
 0.313636026204904E-001
 0.317702655079570E-001
 0.295875482743845E-001
 0.307170187833101E-001
 0.305547684118384E-001
 0.303334349058102E-001
 0.322177505773766E-001
 0.328279163769750E-001
 0.315322317312901E-001
 0.322260363917447E-001
 0.210634666660992E-001
 0.183331115882193E-001
 0.233285607941785E-001
 0.201710262285662E-001
 0.174447569696045E-001
 0.170357293291303E-001
 0.184387364828632E-001
 0.174986586744969E-001
 0.167057437118240E-001
 0.164336985567680E-001
 0.168062152425975E-001
 0.165929924024250E-001
 0.294509386229965E-001
 0.273696135016584E-001
 0.276090566062254E-001
 0.286035284232080E-001
 0.288132830619704E-001
 0.267381834419605E-001
 0.272624311437898E-001
 0.275491907838550E-001
 0.293695418756485E-001
 0.300820157238118E-001
 0.299436131274672E-001
 0.300792658903451E-001
 0.267578526895209E-001
 0.305837284391855E-001
 0.308042890980313E-001
 0.292140002613169E-001
 0.235547268051278E-001
 0.235491571424717E-001
 0.207409481509986E-001
 0.236277352703708E-001
 0.243602965040539E-001
 0.237097477934810E-001
 0.288172614243767E-001
 0.255440838923438E-001
 0.253731644060732E-001
 0.211473449406990E-001
 0.241072121894245E-001
 0.241812410447559E-001
 0.227674338383205E-001
 0.245407405672530E-001
 0.243670431569737E-001
 0.235702044277353E-001
 0.156597324999392E-001
 0.168596917408666E-001
 0.175225587701688E-001
 0.164584081646186E-001
 0.261180937806689E-001
 0.255186156686413E-001
 0.252852438715189E-001
 0.256264709887509E-001
 0.242755671495748E-001
 0.252233351502301E-001
 0.254012887365662E-001
 0.249245154061182E-001
 0.257384804603394E-001
 0.264621581430468E-001
 0.262734117578139E-001
 0.261385521437717E-001
 0.165261753767912E-001
 0.272104223275659E-001
 0.211076222617391E-001
 0.219542911536793E-001
 0.220491190792933E-001
 0.208461088744405E-001
 0.213066471383802E-001
 0.213017423280077E-001
 0.284320016888589E-001
 0.271155350455577E-001
 0.281413039870158E-001
 0.277599207283369E-001
 0.322036780141354E-001
 0.272447306976680E-001
 0.319730334159037E-001
 0.310068721983315E-001
 0.308169131359160E-001
 0.307621465209649E-001
 0.307910021911726E-001
 0.308196879445359E-001
 0.301351722546238E-001
 0.286533221089776E-001
 0.266086449269309E-001
 0.287714075274430E-001
 0.171383820014457E-001
 0.167361521942654E-001
 0.152112832089306E-001
 0.163948202864132E-001
 0.307691745582338E-001
 0.283795570252294E-001
 0.251650359386966E-001
 0.288386872709411E-001
 0.147707418597516E-001
 0.148769705748221E-001
 0.149796934748161E-001
 0.148432858881269E-001
 0.149970532397013E-001
 0.152376726688743E-001
 0.150288198762317E-001
 0.151004709771031E-001
 0.277323847386783E-001
 0.293220367460989E-001
 0.298326709642689E-001
 0.289691725843100E-001
 0.152121332786759E-001
 0.152264318128852E-001
 0.151373838132295E-001
 0.151906948183004E-001
 0.290866510567220E-001
 0.302179114108028E-001
 0.291136932374886E-001
 0.294943099271529E-001
 0.293134641597377E-001
 0.300236894251051E-001
 0.294711360978186E-001
 0.295311457154411E-001
 0.303834499309712E-001
 0.297286171646743E-001
 0.297697407851384E-001
 0.299912940197699E-001
 0.153665215347474E-001
 0.149951818520029E-001
 0.179933187537135E-001
 0.154826918154741E-001
 0.249864313168170E-001
 0.275747807553093E-001
 0.259328476362736E-001
 0.261349774929364E-001
 0.299003145507275E-001
 0.286032736823776E-001
 0.288788092234872E-001
 0.291085965893175E-001
 0.331843666699758E-001
 0.333195110869213E-001
 0.359748309528026E-001
 0.342485497118725E-001
 0.291956266914879E-001
 0.293821446060901E-001
 0.299443553113262E-001
 0.295140289940216E-001
 0.270819610194364E-001
 0.264621320624288E-001
 0.279605853993493E-001
 0.271641431321090E-001
 0.238654550365317E-001
 0.233098850541321E-001
 0.248141506548225E-001
 0.240412987972856E-001
 0.206655551143771E-001
 0.222533767596336E-001
 0.167224127699926E-001
 0.195417788515290E-001
 0.254918332387925E-001
 0.252620735746624E-001
 0.252953111779122E-001
 0.253580273596608E-001
 0.244991229211254E-001
 0.251136648364690E-001
 0.251217908717188E-001
 0.246196447745054E-001
 0.233481291949336E-001
 0.244160863705162E-001
 0.251859062407550E-001
 0.243271739007985E-001
 0.249963777819727E-001
 0.254437196407038E-001
 0.254250954662301E-001
 0.252883047636720E-001
 0.251620358003651E-001
 0.260488317936199E-001
 0.266424147898280E-001
 0.259294259343817E-001
 0.260696511492950E-001
 0.256467920396487E-001
 0.264527053392348E-001
 0.260633906662552E-001
 0.261393089437191E-001
 0.255765319652366E-001
 0.255718552918954E-001
 0.257181766395581E-001
 0.202929330771238E-001
 0.200300288351175E-001
 0.207224653764210E-001
 0.203453238166402E-001
 0.215516145305564E-001
 0.223531570642929E-001
 0.214705369838407E-001
 0.217352184501885E-001
 0.299314289161477E-001
 0.269556276079402E-001
 0.283359930124552E-001
 0.296262543556141E-001
 0.205859878754714E-001
 0.217964370459504E-001
 0.203924106026514E-001
 0.210115676377950E-001
 0.177161322350323E-001
 0.151867498007183E-001
 0.149129025004983E-001
 0.150969601186919E-001
 0.148590389284074E-001
 0.146138113234305E-001
 0.151256733988052E-001
 0.148770105020885E-001
 0.205829849563968E-001
 0.211316532753304E-001
 0.204331059358207E-001
 0.207664515646668E-001
 0.216716078677628E-001
 0.213047018418211E-001
 0.209471631337971E-001
 0.213494813031270E-001
 0.258589867631706E-001
 0.239939921351002E-001
 0.256012541861619E-001
 0.250256824645276E-001
 0.233016718261231E-001
 0.204877763356802E-001
 0.202405849510497E-001
 0.213935170094251E-001
 0.250673073829986E-001
 0.237575478757896E-001
 0.258896748227485E-001
 0.249707332442243E-001
 0.252284971284732E-001
 0.235020580118895E-001
 0.234620652128146E-001
 0.240324976529907E-001
 0.162923112083335E-001
 0.164807061994194E-001
 0.171040763234255E-001
 0.165684032167334E-001
 0.313992915960724E-001
 0.295163232649230E-001
 0.302025104601362E-001
 0.305639063070615E-001
 0.226239664661165E-001
 0.225550744491898E-001
 0.216538580815965E-001
 0.223024100058981E-001
 0.196751414100964E-001
 0.205688936426032E-001
 0.204180889812008E-001
 0.201845453429980E-001
 0.343758318719487E-001
 0.330941610905306E-001
 0.331289781649281E-001
 0.338321048137982E-001
 0.201622358146677E-001
 0.209801811343645E-001
 0.208973149788875E-001
 0.206930831683650E-001
 0.314776070639431E-001
 0.303144399707405E-001
 0.325573194304646E-001
 0.313736990759665E-001
 0.208399294409479E-001
 0.204484253582206E-001
 0.203340201007900E-001
 0.206133191643151E-001
 0.343909684720505E-001
 0.331240590418710E-001
 0.328894098409023E-001
 0.334170265939170E-001
 0.260017121622064E-001
 0.271491163751262E-001
 0.260004520571751E-001
 0.265251755890179E-001
 0.292635107891778E-001
 0.284186735847351E-001
 0.300200853098621E-001
 0.292027141077904E-001
 0.299076308276698E-001
 0.296052724489838E-001
 0.296461534043749E-001
 0.297221561031204E-001
 0.339440294878434E-001
 0.353297407646479E-001
 0.366701195198704E-001
 0.353260211339450E-001
 0.244791923505263E-001
 0.262596583887024E-001
 0.235920262858117E-001
 0.247757989267713E-001
 0.321937918592803E-001
 0.315765765365055E-001
 0.322518582928443E-001
 0.320218754692659E-001
 0.277254493543221E-001
 0.281610635614136E-001
 0.266354202325018E-001
 0.274203666951365E-001
 0.306070495497118E-001
 0.308761469359357E-001
 0.319165287987525E-001
 0.312676523888412E-001
 0.151131651243804E-001
 0.154405184678662E-001
 0.156652756548389E-001
 0.154496530861183E-001
 0.241059470538510E-001
 0.241108379999657E-001
 0.250399155521129E-001
 0.245425051473149E-001
 0.152662583354508E-001
 0.149029428306414E-001
 0.152293102745157E-001
 0.151380392802466E-001
 0.302247553318898E-001
 0.298591282612520E-001
 0.288632176488823E-001
 0.295973734500247E-001
 0.183028046601882E-001
 0.166588788790161E-001
 0.174644083083682E-001
 0.175257664536766E-001
 0.364992143435657E-001
 0.340114814750509E-001
 0.371765257275720E-001
 0.355070461793868E-001
 0.212505890658461E-001
 0.215050187456946E-001
 0.219128961716332E-001
 0.215151211656569E-001
 0.149262250327669E-001
 0.150906247708187E-001
 0.154861198223567E-001
 0.151913372877946E-001
 0.238610039091985E-001
 0.240177463603735E-001
 0.247358553145857E-001
 0.244981558423943E-001
 0.284499735034692E-001
 0.295069619639571E-001
 0.288550937543198E-001
 0.289260425013652E-001
 0.389256203282088E-001
 0.422285382341409E-001
 0.383759149812071E-001
 0.399744223849172E-001
 0.266988079567775E-001
 0.261875314682321E-001
 0.260234889286490E-001
 0.261479427390601E-001
 0.199639084910864E-001
 0.203635541883328E-001
 0.211180782792569E-001
 0.204361115017797E-001
 0.232669920877746E-001
 0.195429950996057E-001
 0.199142907055230E-001
 0.209608834950191E-001
 0.246049635743889E-001
 0.254078022564939E-001
 0.256551194855678E-001
 0.251880111741193E-001
 0.263644765338695E-001
 0.273308906111308E-001
 0.280499393480836E-001
 0.272233409262348E-001
 0.178771531262790E-001
 0.185992962828361E-001
 0.179804392001444E-001
 0.182281996674271E-001
 0.274874288781315E-001
 0.265576271699967E-001
 0.269942775787453E-001
 0.270290788768767E-001
 0.224521925718142E-001
 0.234735505060653E-001
 0.235999861570618E-001
 0.231406474877360E-001
 0.236141469651642E-001
 0.250140291208679E-001
 0.251460977425696E-001
 0.245051309994778E-001
 0.277355888294910E-001
 0.265417342244455E-001
 0.281066120643519E-001
 0.274676886406332E-001
 0.231509367706022E-001
 0.245231315154804E-001
 0.230051842928680E-001
 0.236068097721026E-001
 0.244887875546338E-001
 0.253871468183259E-001
 0.255135887882931E-001
 0.250191981409720E-001
 0.259682635368329E-001
 0.272472158513941E-001
 0.260155778055107E-001
 0.264086606828330E-001
 0.260597641627985E-001
 0.295137589522348E-001
 0.276068407109124E-001
 0.277465025073524E-001
 0.246586281422745E-001
 0.304528839182138E-001
 0.258046835237535E-001
 0.273791483966349E-001
 0.206018047986636E-001
 0.209289556526284E-001
 0.201115140925627E-001
 0.204813466695162E-001
 0.218929713013391E-001
 0.213260553483224E-001
 0.220034796820974E-001
 0.217403562000851E-001
 0.194591717107203E-001
 0.201832821117374E-001
 0.197399841861442E-001
 0.198261391026394E-001
 0.210581076723385E-001
 0.216175276686757E-001
 0.209034018868167E-001
 0.211774828111595E-001
 0.175670065783666E-001
 0.178989520456260E-001
 0.179016381623723E-001
 0.177291489451128E-001
 0.189867935560994E-001
 0.188763028323312E-001
 0.193641171399932E-001
 0.191103327180411E-001
 0.313970791727962E-001
 0.318323625508667E-001
 0.322415196613242E-001
 0.318398587876506E-001
 0.361166319786042E-001
 0.358955117324180E-001
 0.374603534146766E-001
 0.365684828528072E-001
 0.234577079527794E-001
 0.226211910230057E-001
 0.235542804692141E-001
 0.231753222809796E-001
 0.232835073764501E-001
 0.223854012874337E-001
 0.224810127127786E-001
 0.227565179421853E-001
 0.234287713464716E-001
 0.235720279240907E-001
 0.242926244539273E-001
 0.238120155585777E-001
 0.282611797758038E-001
 0.271905205934291E-001
 0.273344509930603E-001
 0.275911637224195E-001
 0.217863588734791E-001
 0.199347150758772E-001
 0.208828969549414E-001
 0.211776322943396E-001
 0.176710105146704E-001
 0.174072500345329E-001
 0.168403835497342E-001
 0.172868065572506E-001
 0.288749455258584E-001
 0.239536941018511E-001
 0.244798989861830E-001
 0.277139133557343E-001
 0.157597809006625E-001
 0.157345704446382E-001
 0.150807919998684E-001
 0.153837490254776E-001
 0.168467507093364E-001
 0.189696594426502E-001
 0.187191955946780E-001
 0.178035936788218E-001
 0.182337430769513E-001
 0.194480688610685E-001
 0.192732509608582E-001
 0.188317707958107E-001
 0.239344293121937E-001
 0.219844675708115E-001
 0.255956007080696E-001
 0.246241925439913E-001
 0.145393449817405E-001
 0.144946239571075E-001
 0.146804380146158E-001
 0.145839972443868E-001
 0.154362667226157E-001
 0.149770154638208E-001
 0.148937196592730E-001
 0.151329540396054E-001
 0.185004654721586E-001
 0.193185387121362E-001
 0.193222557379089E-001
 0.189471758438951E-001
 0.153679889706682E-001
 0.160449191365776E-001
 0.158374418856315E-001
 0.156938122033376E-001
 0.162790360408910E-001
 0.162073737985548E-001
 0.176855166407780E-001
 0.168014779249258E-001
 0.184759708629946E-001
 0.189919231516437E-001
 0.191752007624433E-001
 0.189188384437249E-001
 0.144229545237656E-001
 0.144557428212049E-001
 0.144740688048665E-001
 0.144467031576438E-001
 0.198519884761169E-001
 0.194830060534425E-001
 0.195767838483316E-001
 0.196548339818894E-001
 0.159960138502897E-001
 0.185455520263938E-001
 0.162361448563139E-001
 0.165591136086587E-001
 0.164850637873884E-001
 0.182179439966916E-001