# vtk DataFile Version 3.0
Unstructured Grid
ASCII
DATASET UNSTRUCTURED_GRID
FIELD FieldData 1
TIME 1 1 float
  0.712500E+01
POINTS         1241 double
 0.000000000000000E+000 0.000000000000000E+000 0.000000000000000E+000
 0.100000000000000E+001 0.000000000000000E+000 0.000000000000000E+000
 0.100000000000000E+001 0.100000000000000E+001 0.000000000000000E+000
 0.000000000000000E+000 0.100000000000000E+001 0.000000000000000E+000
 0.125000000000000E+000 0.250000000000000E+000 0.000000000000000E+000
 0.375000000000000E+000 0.250000000000000E+000 0.000000000000000E+000
 0.375000000000000E+000 0.750000000000000E+000 0.000000000000000E+000
 0.125000000000000E+000 0.750000000000000E+000 0.000000000000000E+000
 0.625000000000000E+000 0.250000000000000E+000 0.000000000000000E+000
 0.875000000000000E+000 0.250000000000000E+000 0.000000000000000E+000
 0.875000000000000E+000 0.750000000000000E+000 0.000000000000000E+000
 0.625000000000000E+000 0.750000000000000E+000 0.000000000000000E+000
 0.100000000000000E+001 0.500000000000000E+000 0.000000000000000E+000
 0.000000000000000E+000 0.500000000000000E+000 0.000000000000000E+000
 0.500000000000000E+000 0.000000000000000E+000 0.000000000000000E+000
 0.125000000000000E+000 0.500000000000000E+000 0.000000000000000E+000
 0.000000000000000E+000 0.750000000000000E+000 0.000000000000000E+000
 0.000000000000000E+000 0.250000000000000E+000 0.000000000000000E+000
 0.000000000000000E+000 0.875000000000000E+000 0.000000000000000E+000
 0.308529810216860E+000 0.500255759132561E+000 0.000000000000000E+000
 0.250000000000000E+000 0.000000000000000E+000 0.000000000000000E+000
 0.125000000000000E+000 0.375000000000000E+000 0.000000000000000E+000
 0.125000000000000E+000 0.625000000000000E+000 0.000000000000000E+000
 0.000000000000000E+000 0.375000000000000E+000 0.000000000000000E+000
 0.000000000000000E+000 0.437500000000000E+000 0.000000000000000E+000
 0.625000000000000E-001 0.406250000000000E+000 0.000000000000000E+000
 0.125000000000000E+000 0.437500000000000E+000 0.000000000000000E+000
 0.216796875000000E+000 0.382812500000000E+000 0.000000000000000E+000
 0.183593750000000E+000 0.468750000000000E+000 0.000000000000000E+000
 0.375000000000000E+000 0.500000000000000E+000 0.000000000000000E+000
 0.250000000000000E+000 0.468750000000000E+000 0.000000000000000E+000
 0.625000000000000E-001 0.481770833333333E+000 0.000000000000000E+000
 0.184176834650379E+000 0.540399924344460E+000 0.000000000000000E+000
 0.216796875000000E+000 0.432195490056818E+000 0.000000000000000E+000
 0.168571309840426E+000 0.406250000000000E+000 0.000000000000000E+000
 0.125000000000000E+000 0.687500000000000E+000 0.000000000000000E+000
 0.255828208111702E+000 0.540763692652926E+000 0.000000000000000E+000
 0.375000000000000E+000 0.375000000000000E+000 0.000000000000000E+000
 0.375000000000000E+000 0.625000000000000E+000 0.000000000000000E+000
 0.220170948184400E+000 0.507406813570504E+000 0.000000000000000E+000
 0.219557967718869E+000 0.628145457476636E+000 0.000000000000000E+000
 0.125000000000000E+000 0.562500000000000E+000 0.000000000000000E+000
 0.000000000000000E+000 0.625000000000000E+000 0.000000000000000E+000
 0.375000000000000E+000 0.437500000000000E+000 0.000000000000000E+000
 0.280323303380492E+000 0.407503995028409E+000 0.000000000000000E+000
 0.375000000000000E+000 0.562500000000000E+000 0.000000000000000E+000
 0.219817452482738E+000 0.577034793653623E+000 0.000000000000000E+000
 0.885901781235304E-001 0.531250000000000E+000 0.000000000000000E+000
 0.312500000000000E+000 0.250000000000000E+000 0.000000000000000E+000
 0.297268942273640E+000 0.626076494243052E+000 0.000000000000000E+000
 0.168732375746058E+000 0.593750000000000E+000 0.000000000000000E+000
 0.173890458776596E+000 0.343750000000000E+000 0.000000000000000E+000
 0.183963193611824E+000 0.278873942859495E+000 0.000000000000000E+000
 0.250000000000000E+000 0.250000000000000E+000 0.000000000000000E+000
 0.237162500098357E+000 0.317347265649589E+000 0.000000000000000E+000
 0.250000000000000E+000 0.750000000000000E+000 0.000000000000000E+000
 0.292902283271084E+000 0.575476271929907E+000 0.000000000000000E+000
 0.125000000000000E+000 0.312500000000000E+000 0.000000000000000E+000
 0.585937500000000E-001 0.335937500000000E+000 0.000000000000000E+000
 0.000000000000000E+000 0.312500000000000E+000 0.000000000000000E+000
 0.336992576921227E+000 0.687500000000000E+000 0.000000000000000E+000
 0.312500000000000E+000 0.750000000000000E+000 0.000000000000000E+000
 0.270599706447422E+000 0.686880677247748E+000 0.000000000000000E+000
 0.500000000000000E+000 0.100000000000000E+001 0.000000000000000E+000
 0.250000000000000E+000 0.100000000000000E+001 0.000000000000000E+000
 0.375000000000000E+000 0.100000000000000E+001 0.000000000000000E+000
 0.281250000000000E+000 0.830729166666667E+000 0.000000000000000E+000
 0.343750000000000E+000 0.312500000000000E+000 0.000000000000000E+000
 0.318389033445014E+000 0.364242983277493E+000 0.000000000000000E+000
 0.267787317245899E+000 0.358095790057897E+000 0.000000000000000E+000
 0.289796410792034E+000 0.300414294603983E+000 0.000000000000000E+000
 0.274503756719177E+000 0.737152390322435E-001 0.000000000000000E+000
 0.343750000000000E+000 0.183159722222222E+000 0.000000000000000E+000
 0.246744791666667E+000 0.146267361111111E+000 0.000000000000000E+000
 0.485980902777778E+000 0.146267361111111E+000 0.000000000000000E+000
 0.302262721771688E+000 0.146267361111111E+000 0.000000000000000E+000
 0.274503756719177E+000 0.197313658770435E+000 0.000000000000000E+000
 0.375000000000000E+000 0.000000000000000E+000 0.000000000000000E+000
 0.420862160086615E+000 0.187832617434252E+000 0.000000000000000E+000
 0.384683294119816E+000 0.146267361111111E+000 0.000000000000000E+000
 0.330565923051619E+000 0.413335216176427E+000 0.000000000000000E+000
 0.352621063931298E+000 0.818811625318066E+000 0.000000000000000E+000
 0.312179705605879E+000 0.796288985503351E+000 0.000000000000000E+000
 0.500000000000000E+000 0.828697389616904E+000 0.000000000000000E+000
 0.427559261986282E+000 0.805138192500353E+000 0.000000000000000E+000
 0.399035374849065E+000 0.860999763838749E+000 0.000000000000000E+000
 0.312500000000000E+000 0.000000000000000E+000 0.000000000000000E+000
 0.187500000000000E+000 0.820606518817204E+000 0.000000000000000E+000
 0.466707069430364E+000 0.898575881689250E+000 0.000000000000000E+000
 0.511172798160702E+000 0.257526753061783E+000 0.000000000000000E+000
 0.453250172578119E+000 0.849294180402265E+000 0.000000000000000E+000
 0.937500000000000E-001 0.504496261452806E-001 0.000000000000000E+000
 0.403162177800535E+000 0.933291523780214E+000 0.000000000000000E+000
 0.437500000000000E+000 0.100000000000000E+001 0.000000000000000E+000
 0.312500000000000E+000 0.934315683855312E+000 0.000000000000000E+000
 0.453353205989905E+000 0.949647808263675E+000 0.000000000000000E+000
 0.358054120979715E+000 0.953547171775243E+000 0.000000000000000E+000
 0.325154404090345E+000 0.873991089312954E+000 0.000000000000000E+000
 0.367644435624882E+000 0.899055397729593E+000 0.000000000000000E+000
 0.236990017361111E+000 0.801449092741935E+000 0.000000000000000E+000
 0.443167922913219E+000 0.252288460541578E+000 0.000000000000000E+000
 0.477263196714215E+000 0.204401840413902E+000 0.000000000000000E+000
 0.562394794036017E+000 0.187447086349591E+000 0.000000000000000E+000
 0.625000000000000E+000 0.375000000000000E+000 0.000000000000000E+000
 0.407024191230044E+000 0.312500000000000E+000 0.000000000000000E+000
 0.474084945258901E+000 0.294963270028168E+000 0.000000000000000E+000
 0.216342369774119E+000 0.930487241414522E-001 0.000000000000000E+000
 0.157072243143605E+000 0.162201579117130E+000 0.000000000000000E+000
 0.187500000000000E+000 0.000000000000000E+000 0.000000000000000E+000
 0.174352819470591E+000 0.117036261141583E+000 0.000000000000000E+000
 0.125000000000000E+000 0.000000000000000E+000 0.000000000000000E+000
 0.218750000000000E+000 0.413079239859885E-001 0.000000000000000E+000
 0.131982343008202E+000 0.962324019836500E-001 0.000000000000000E+000
 0.866442243142230E-001 0.109366815743071E+000 0.000000000000000E+000
 0.000000000000000E+000 0.125000000000000E+000 0.000000000000000E+000
 0.156250000000000E+000 0.557461246091935E-001 0.000000000000000E+000
 0.343473007945752E+000 0.889135573360382E-001 0.000000000000000E+000
 0.316206161479800E+000 0.485604570335434E-001 0.000000000000000E+000
 0.430629647389619E+000 0.697713778434944E-001 0.000000000000000E+000
 0.391175490408355E+000 0.981202752650288E-001 0.000000000000000E+000
 0.444501950008550E+000 0.736368377006958E+000 0.000000000000000E+000
 0.398829470438439E+000 0.687500000000000E+000 0.000000000000000E+000
 0.513688817046671E+000 0.757625009132424E+000 0.000000000000000E+000
 0.625000000000000E+000 0.500000000000000E+000 0.000000000000000E+000
 0.473588841595499E+000 0.786756047776317E+000 0.000000000000000E+000
 0.478860669310979E+000 0.411527234375853E+000 0.000000000000000E+000
 0.572911532233985E+000 0.805885984489640E+000 0.000000000000000E+000
 0.447298813474571E+000 0.682006891579307E+000 0.000000000000000E+000
 0.504019394669429E+000 0.534902916754864E+000 0.000000000000000E+000
 0.486274863958833E+000 0.352843653662708E+000 0.000000000000000E+000
 0.551332894747653E+000 0.390873360445252E+000 0.000000000000000E+000
 0.433027718644055E+000 0.375926460599989E+000 0.000000000000000E+000
 0.437992666628316E+000 0.468750000000000E+000 0.000000000000000E+000
 0.421394775819071E+000 0.423093236096220E+000 0.000000000000000E+000
 0.501785840486804E+000 0.471105361968983E+000 0.000000000000000E+000
 0.433650269193003E+000 0.539110962574808E+000 0.000000000000000E+000
 0.559767288621728E+000 0.501013305633588E+000 0.000000000000000E+000
 0.473047166828055E+000 0.607447789310414E+000 0.000000000000000E+000
 0.551301338206151E+000 0.446268697831009E+000 0.000000000000000E+000
 0.625000000000000E+000 0.625000000000000E+000 0.000000000000000E+000
[...]
CELL_DATA         2368
SCALARS tdens double 1
LOOKUP_TABLE default
 0.290506202757567E+000
 0.291235909411632E+000
 0.289153538879993E+000
 0.289979328439787E+000
 0.286471236340595E+000
 0.287027638122880E+000
 0.286861922386297E+000
 0.286839522135737E+000
 0.292389178969224E+000
 0.296087606064228E+000
 0.295969840549940E+000
 0.294879021194505E+000
 0.293040010307216E+000
 0.292909316470102E+000
 0.293914533769700E+000
 0.293421954730040E+000
 0.294346465654864E+000
 0.294007714168845E+000
 0.294572102295557E+000
 0.294241659988980E+000
 0.281837808746361E+000
 0.281605880788871E+000
 0.281633242540923E+000
 0.281693826758515E+000
 0.284579696221975E+000
 0.284863870196443E+000
 0.283240400848514E+000
 0.283964954373670E+000
 0.295358591184380E+000
 0.294688289201705E+000
 0.295014430934437E+000
 0.294957944260217E+000
 0.298545192045829E+000
 0.299621009767472E+000
 0.300058361741795E+000
 0.299550149103786E+000
 0.289785013099968E+000
 0.289198393639799E+000
 0.290288849726350E+000
 0.289729133479867E+000
 0.287210113481286E+000
 0.287386317298159E+000
 0.287698197855715E+000
 0.287363824316141E+000
 0.290366797343747E+000
 0.290232653219598E+000
 0.289595421538380E+000
 0.290117731631747E+000
 0.294050064414044E+000
 0.302848264297489E+000
 0.290571095711997E+000
 0.294316913032498E+000
 0.295308618203482E+000
 0.296281734082998E+000
 0.296669423464057E+000
 0.296292846651381E+000
 0.281525248972502E+000
 0.281369671609066E+000
 0.281509915775763E+000
 0.281437555613957E+000
 0.291948607866157E+000
 0.293141279599202E+000
 0.291748690851199E+000
 0.292284019144310E+000
 0.297679912380302E+000
 0.296594765782338E+000
 0.298474023370580E+000
 0.297238799519106E+000
 0.283037443418048E+000
 0.283381091668863E+000
 0.283110993834792E+000
 0.283120682353411E+000
 0.283296146143000E+000
 0.282671339542205E+000
 0.283113516398137E+000
 0.282930850273464E+000
 0.295160579192031E+000
 0.295724330114173E+000
 0.295602671280150E+000
 0.295580109486007E+000
 0.292658412214415E+000
 0.294318893316290E+000
 0.293253893709373E+000
 0.293383546736427E+000
 0.286092165694360E+000
 0.284843070464354E+000
 0.284988979432724E+000
 0.285250235277222E+000
 0.290832595422739E+000
 0.287651255179225E+000
 0.285849702752048E+000
 0.287926995698420E+000
 0.283509260045331E+000
 0.283393294226353E+000
 0.283628733676089E+000
 0.283507668949521E+000
 0.294547202704917E+000
 0.294376591238699E+000
 0.295114706297726E+000
 0.294702789088049E+000
 0.294616604545812E+000
 0.295662490554116E+000
 0.295637572652228E+000
 0.295424382296732E+000
 0.283580883781966E+000
 0.283558706975041E+000
 0.283681050220776E+000
 0.283615085847673E+000
 0.283724825000582E+000
 0.283801408252920E+000
 0.284123135355701E+000
 0.283863741954160E+000
 0.283578719748080E+000
 0.284098627891696E+000
 0.283903121234867E+000
 0.283930629740147E+000
 0.290818238167428E+000
 0.290829557201587E+000
 0.291587881237993E+000
 0.291065093711160E+000
 0.292024408301008E+000
 0.291709179940565E+000
 0.292314390517812E+000
 0.292042227995451E+000
 0.283058015463644E+000
 0.282373821929044E+000
 0.282549077548241E+000
 0.282672099979721E+000
 0.282456452490697E+000
 0.282916274214401E+000
 0.282672087386705E+000
 0.282690341753750E+000
 0.293887826682512E+000
 0.293080857304975E+000
 0.293486887528970E+000
 0.293402006683356E+000
 0.283973979472165E+000
 0.283303953550152E+000
 0.283077784094328E+000
 0.283527487896167E+000
 0.282222751373987E+000
 0.282390718353670E+000
 0.283152167375302E+000
 0.282530499469918E+000
 0.282251310850014E+000
 0.282279540229056E+000
 0.282241833885355E+000
 0.282263905777168E+000
 0.282354064056819E+000
 0.282385787627127E+000
 0.282538287176986E+000
 0.282415790159022E+000
 0.282070369498363E+000
 0.281544188185966E+000
 0.282096773127429E+000
 0.281894402627512E+000
 0.285745960801831E+000
 0.284625873049419E+000
 0.283304100996287E+000
 0.284336204839838E+000
 0.287888273513767E+000
 0.284197280271854E+000
 0.286248052819796E+000
 0.285800727665944E+000
 0.290959859026909E+000
 0.293821783963330E+000
 0.296218290056974E+000
 0.294229554580887E+000
 0.283121839567770E+000
 0.281712097229913E+000
 0.281683031517589E+000
 0.281714902432322E+000
 0.295824645879205E+000
 0.291201585749079E+000
 0.296529381458408E+000
 0.295234693546567E+000
 0.292565095165973E+000
 0.292591396418521E+000
 0.292195268900938E+000
 0.292371760622132E+000
 0.283517815739493E+000
 0.282484559571907E+000
 0.284445081248413E+000
 0.282827859903172E+000
 0.282243177229236E+000
 0.281971571540278E+000
 0.282160130644758E+000
 0.282093083585323E+000
 0.290534337002865E+000
 0.290031990797390E+000
 0.290351779184098E+000
 0.290238622932436E+000
 0.282826295983724E+000
 0.283125111025674E+000
 0.283169975779771E+000
 0.283037541326093E+000
 0.282677614185256E+000
 0.283001556268541E+000
 0.282410808011430E+000
 0.282578545938237E+000
 0.286533025243965E+000
 0.284824979849115E+000
 0.287795896255887E+000
 0.286057435918203E+000
 0.282758834970451E+000
 0.284227270241514E+000
 0.284939239478715E+000
 0.283723121236533E+000
 0.283723233235278E+000
 0.284922886794402E+000
 0.281887609879861E+000
 0.283152790210102E+000
 0.293369046613517E+000
 0.291172943686670E+000
 0.292529205754657E+000
 0.292415623381243E+000
 0.287247728967636E+000
 0.285822797796260E+000
 0.285280439063328E+000
 0.286613399144702E+000
 0.291564632765767E+000
 0.286452184549813E+000
 0.289587638471622E+000
 0.289616662303713E+000
 0.297576273233179E+000
 0.296817503375979E+000
 0.296392111807164E+000
 0.296793133107266E+000
 0.283462532197337E+000
 0.283805601102458E+000
 0.283469465791748E+000
 0.283536019341235E+000
 0.295567246924102E+000
 0.294737263581193E+000
 0.295661117762497E+000
 0.295492030447700E+000
 0.287468997918037E+000
 0.288466786862673E+000
 0.285930765003550E+000
 0.287306030167092E+000
 0.288092943692821E+000
 0.288014829244909E+000
 0.288363843918700E+000
 0.288171829364953E+000
 0.289534914165167E+000
 0.289734739021900E+000
 0.290275001911855E+000
 0.289793536062116E+000
 0.293983029159643E+000
 0.294065732037154E+000
 0.293749231745276E+000
 0.293900091819721E+000
 0.289532043258850E+000
 0.289522605575692E+000
 0.290032247531781E+000
 0.289792718936496E+000
 0.296705366514650E+000
 0.297354911370527E+000
 0.296168703780313E+000
 0.296971298991069E+000
 0.289267220201447E+000
 0.294123385761977E+000
 0.290666791821955E+000
 0.291199228208398E+000
 0.294148400831709E+000
 0.294422658667712E+000
 0.293752655755409E+000
 0.294205959796014E+000
 0.293782716505964E+000
 0.294202147971927E+000
 0.294130068265232E+000
 0.294007001447676E+000
 0.291487340013875E+000
 0.291787768463290E+000
 0.294687595035249E+000
 0.292426373293231E+000
 0.287008198888451E+000
 0.288861506165147E+000
 0.289606032864613E+000
 0.288085990197455E+000
 0.284342765193027E+000
 0.283645639515471E+000
 0.284412722751689E+000
 0.283979239851630E+000
 0.295358395021574E+000
 0.293738724935168E+000
 0.293401331602989E+000
 0.294315485218642E+000
 0.295072692929493E+000
 0.293647618956501E+000
 0.294485197247602E+000
 0.294200383985021E+000
 0.295299937431882E+000
 0.294469205448081E+000
 0.293218554241692E+000
 0.294298489828413E+000
 0.288197296826592E+000
 0.285602095088023E+000
 0.285844897335935E+000
 0.285928901074279E+000
 0.288475683499938E+000
 0.286878020150928E+000
 0.290046767437039E+000
 0.288793688360825E+000
 0.294484341134044E+000
 0.295113240315935E+000
 0.294413845525523E+000
 0.294572748818717E+000
 0.293800883062783E+000
 0.294122051060949E+000
 0.294068221522984E+000
 0.293953539664532E+000
 0.295263079708756E+000
 0.295396846997661E+000
 0.294512372486488E+000
 0.295141406890589E+000
 0.287342766337540E+000
 0.285727072648874E+000
 0.290109041000408E+000
 0.287011253163500E+000
 0.285268069044236E+000
 0.284859770722625E+000
 0.286333703310568E+000
 0.285322579415949E+000
 0.284450468416354E+000
 0.284078656033579E+000
 0.284470519364061E+000
 0.284256128560757E+000
 0.294344270701165E+000
 0.292767700200606E+000
 0.292882301956147E+000
 0.293628163831134E+000
 0.294297819610789E+000
 0.292664610199954E+000
 0.292835555994148E+000
 0.293052178664231E+000
 0.294377904732351E+000
 0.294400782758209E+000
 0.294739420463346E+000
 0.294605531524001E+000
 0.292373405243807E+000
 0.294641635759988E+000
 0.294264648701622E+000
 0.293455134768154E+000
 0.289718030155241E+000
 0.290269079049347E+000
 0.288240201963178E+000
 0.290108806408235E+000
 0.290708988806733E+000
 0.290331680262676E+000
 0.293530315074107E+000
 0.291894848219840E+000
 0.291416314854606E+000
 0.287907750892440E+000
 0.289670436358443E+000
 0.289837056287702E+000
 0.290118895145295E+000
 0.291029735226533E+000
 0.291246204931470E+000
 0.290470502521905E+000
 0.282653748038960E+000
 0.283814513906790E+000
 0.284524286411114E+000
 0.283407541540781E+000
 0.292070720255084E+000
 0.291958297559828E+000
 0.291791214053909E+000
 0.291930773233012E+000
 0.291031988896513E+000
 0.291555152857523E+000
 0.291746864779853E+000
 0.291428136879924E+000
 0.292087885364104E+000
 0.292529091396982E+000
 0.292516905009719E+000
 0.292306619101045E+000
 0.283170485164971E+000
 0.291925398492111E+000
 0.287159528511237E+000
 0.288158183734955E+000
 0.289938223042711E+000
 0.289066651902720E+000
 0.289354785940667E+000
 0.289346074689865E+000
 0.294000622468436E+000
 0.293451587430306E+000
 0.293533226454646E+000
 0.293561702412666E+000
 0.296491532047767E+000
 0.292030726157911E+000
 0.296346948737486E+000
 0.295865331133388E+000
 0.294248707082510E+000
 0.294131483535856E+000
 0.294124627267679E+000
 0.294170323974414E+000
 0.293849072771935E+000
 0.293355740161080E+000
 0.292201733023805E+000
 0.293392603705566E+000
 0.284170598917668E+000
 0.283889715335680E+000
 0.282225307694466E+000
 0.283539972865137E+000
 0.294915070738002E+000
 0.293143554871951E+000
 0.290320916503466E+000
 0.293683420819791E+000
 0.281724816887625E+000
 0.281852736170090E+000
 0.281952534876281E+000
 0.281801825726989E+000
 0.281981487806597E+000
 0.282228297234789E+000
 0.282004841655584E+000
 0.282085529475341E+000
 0.294003903771789E+000
 0.294598981364663E+000
 0.295030216632892E+000
 0.294500368555401E+000
 0.282210916013147E+000
 0.282238405186561E+000
 0.282130969226954E+000
 0.282191040641944E+000
 0.293785765541316E+000
 0.294222536481304E+000
 0.294105360419194E+000
 0.294088931440501E+000
 0.294477999053786E+000
 0.294800777996830E+000
 0.294581874609656E+000
 0.294575902445992E+000
 0.295217800728665E+000
 0.294690562533498E+000
 0.294625755313728E+000
 0.294776177615910E+000
 0.282694442233596E+000
 0.282122331858081E+000
 0.284678207192646E+000
 0.282529502103141E+000
 0.291443613741489E+000
 0.293038750152098E+000
 0.292567746835593E+000
 0.292499803002151E+000
 0.295273386773280E+000
 0.294758881586998E+000
 0.294520377238609E+000
 0.294909352693272E+000
 0.299056513622632E+000
 0.298319024888583E+000
 0.299839213929822E+000
 0.299267576615849E+000
 0.294399884204410E+000
 0.294393061020194E+000
 0.294761087957485E+000
 0.294586678625996E+000
 0.295477845871338E+000
 0.294707112249487E+000
 0.295827125418269E+000
 0.295461956104516E+000
 0.292392038064255E+000
 0.291746367362369E+000
 0.292864499011423E+000
 0.292473382911617E+000
 0.286921808980496E+000
 0.289151093216795E+000
 0.284125449443914E+000
 0.286451376477126E+000
 0.291926275627606E+000
 0.291670433102236E+000
 0.291768424597102E+000
 0.291763326426176E+000
 0.291161291260915E+000
 0.291607913278810E+000
 0.291543277704505E+000
 0.291211077519565E+000
 0.290729000947477E+000
 0.291427793511725E+000
 0.292175570979234E+000
 0.291524645125463E+000
 0.291783577993271E+000
 0.292034031315797E+000
 0.292237664907235E+000
 0.292063138105258E+000
 0.291579560762240E+000
 0.291861976728123E+000
 0.292326415929544E+000
 0.291936130642222E+000
 0.292118611936432E+000
 0.291801465915669E+000
 0.292243749249829E+000
 0.292067706367003E+000
 0.292107523745119E+000
 0.291801889196854E+000
 0.291909334501317E+000
 0.291904331490038E+000
 0.288552757284861E+000
 0.288245029852531E+000
 0.288847239949939E+000
 0.288572522643339E+000
 0.289398902328862E+000
 0.290008648289214E+000
 0.289403071562109E+000
 0.289554611234134E+000
 0.294859317180101E+000
 0.291656862229383E+000
 0.294347359355605E+000
 0.294784574115269E+000
 0.288845214291240E+000
 0.289708489778838E+000
 0.288660946974676E+000
 0.289202240991752E+000
 0.284079531509798E+000
 0.282157246382217E+000
 0.281959689385808E+000
 0.281815615871149E+000
 0.282052888025620E+000
 0.281814232700903E+000
 0.282416784520749E+000
 0.282127033993146E+000
 0.288608609963480E+000
 0.289013716333519E+000
 0.288400240284323E+000
 0.288743819952119E+000
 0.289346367448752E+000
 0.289140258187243E+000
 0.288842709925143E+000
 0.289171242583138E+000
 0.292368432705496E+000
 0.291086356131917E+000
 0.292058934992490E+000
 0.291782426526658E+000
 0.290783509164128E+000
 0.288554494265470E+000
 0.288445353716508E+000
 0.289550291338261E+000
 0.292070797067476E+000
 0.291080997774989E+000
 0.292549179324270E+000
 0.292090749679894E+000
 0.292044271895206E+000
 0.290924468527042E+000
 0.290799564880060E+000
 0.291231110310412E+000
 0.284156196715225E+000
 0.284465172911939E+000
 0.285237487914939E+000
 0.284556061814468E+000
 0.297196245033602E+000
 0.296529120415995E+000
 0.296437365163657E+000
 0.296863100065088E+000
 0.290219202824155E+000
 0.290229759771653E+000
 0.289558311199843E+000
 0.290036211598489E+000
 0.287777263253449E+000
 0.288498039006870E+000
 0.288416224268000E+000
 0.288209071645403E+000
 0.297651059936045E+000
 0.297565804551245E+000
 0.297117413612991E+000
 0.297649862976880E+000
 0.288328913948519E+000
 0.288962422673900E+000
 0.288952043810386E+000
 0.288776790191096E+000
 0.295532599085412E+000
 0.295326621027402E+000
 0.296540896213936E+000
 0.295630620863792E+000
 0.288985123546052E+000
 0.288737991365028E+000
 0.288626033282080E+000
 0.288858640383663E+000
 0.297361156044221E+000
 0.296890260095592E+000
 0.296395770245672E+000
 0.296878916255076E+000
 0.293679390852299E+000
 0.294319504785570E+000
 0.294022402214707E+000
 0.294181443355149E+000
 0.294342807277913E+000
 0.293953929813307E+000
 0.295120976859448E+000
 0.294311975312103E+000
 0.294765696639249E+000
 0.294546559974613E+000
 0.294616048373845E+000
 0.294616928413401E+000
 0.298336571924563E+000
 0.298409594670858E+000
 0.299810480778505E+000
 0.298643459650903E+000
 0.291681082202450E+000
 0.292745716170520E+000
 0.291212960217644E+000
 0.292018002089172E+000
 0.295708649814158E+000
 0.295211919257060E+000
 0.295517680920505E+000
 0.295533880023502E+000
 0.294917747019809E+000
 0.295767440827147E+000
 0.294681519129437E+000
 0.294964445930014E+000
 0.296211989533098E+000
 0.295949559370534E+000
 0.296534939894816E+000
 0.296354065050479E+000
 0.282345311655547E+000
 0.282784410965469E+000
 0.282926175445049E+000
 0.282713871748365E+000
 0.293002807182444E+000
 0.292830516908129E+000
 0.293640642521969E+000
 0.293254763024238E+000
 0.282766636051834E+000
 0.282249196911565E+000
 0.282721005154752E+000
 0.282592075666813E+000
 0.295695998486272E+000
 0.295912693912080E+000
 0.295168547002638E+000
 0.295529576446097E+000
 0.286436859466911E+000
 0.284567509758910E+000
 0.285613031779744E+000
 0.285660370347030E+000
 0.301506055504364E+000
 0.299936669085268E+000
 0.300928112344871E+000
 0.300557539874808E+000
 0.289007361094126E+000
 0.289191055489061E+000
 0.289481682299247E+000
 0.289178214082937E+000
 0.282295125883960E+000
 0.282542154728467E+000
 0.283069838586613E+000
 0.282675295648102E+000
 0.290742561321998E+000
 0.290840133698069E+000
 0.291313126798953E+000
 0.291182035270124E+000
 0.295143917858759E+000
 0.295931876895624E+000
 0.295981988547100E+000
 0.295772556760532E+000
 0.301726348324485E+000
 0.304092059017824E+000
 0.302517050807800E+000
 0.302757465433332E+000
 0.295347093026602E+000
 0.295023062065815E+000
 0.294559151800768E+000
 0.294896792010037E+000
 0.288783838181256E+000
 0.289159828849601E+000
 0.290034075056800E+000
 0.289242034405833E+000
 0.290698527891931E+000
 0.287648567224157E+000
 0.287932352014697E+000
 0.289090459191437E+000
 0.293499263490868E+000
 0.294073628887802E+000
 0.294543171283562E+000
 0.294018845861104E+000
 0.293092355151057E+000
 0.293400026835007E+000
 0.293900995708966E+000
 0.293470533460083E+000
 0.285968735276577E+000
 0.286696342993914E+000
 0.286070098288500E+000
 0.286342554382576E+000
 0.296578433396168E+000
 0.295532201405650E+000
 0.295839166151040E+000
 0.295938215582437E+000
 0.291373613891581E+000
 0.292271564693247E+000
 0.292490097108664E+000
 0.292079467950858E+000
 0.291924811134384E+000
 0.292667464565916E+000
 0.293024943592361E+000
 0.292390356240830E+000
 0.294323290816122E+000
 0.293415121668223E+000
 0.294138207683326E+000
 0.293902912798545E+000
 0.291146874549942E+000
 0.292152243609087E+000
 0.291300102697945E+000
 0.291641145130294E+000
 0.293025437140569E+000
 0.293446914774902E+000
 0.293843220001582E+000
 0.293317029562773E+000
 0.293157518982090E+000
 0.294148174991425E+000
 0.293492794209694E+000
 0.293672691383995E+000
 0.292870287284673E+000
 0.294963601933180E+000
 0.293610004017890E+000
 0.293646610754474E+000
 0.290619489880100E+000
 0.295689263955664E+000
 0.292273548015137E+000
 0.292858144320287E+000
 0.288628596255742E+000
 0.288920707258386E+000
 0.288275609996156E+000
 0.288522554030762E+000
 0.289475519829101E+000
 0.289056510900357E+000
 0.289533789546423E+000
 0.289366860820665E+000
 0.287600656071412E+000
 0.288239178598132E+000
 0.287905433352099E+000
 0.287974578555412E+000
 0.288879218090621E+000
 0.289309033513908E+000
 0.288803826969808E+000
 0.288976052895471E+000
 0.285736589346277E+000
 0.286084553882517E+000
 0.286117548357792E+000
 0.285912759219827E+000
 0.287319534994659E+000
 0.287155451224790E+000
 0.287628981292267E+000
 0.287415076342869E+000
 0.294573766642458E+000
 0.294855681592304E+000
 0.295218976734465E+000
 0.294969881850114E+000
 0.298031275937503E+000
 0.297480216882114E+000
 0.298424555806503E+000
 0.297987937736465E+000
 0.290510079388045E+000
 0.289971223799425E+000
 0.290555900338057E+000
 0.290351958916822E+000
 0.290389279189475E+000
 0.289813519949007E+000
 0.289863548360225E+000
 0.290053231913072E+000
 0.290602679149178E+000
 0.290827682984651E+000
 0.291189445901074E+000
 0.290943121091481E+000
 0.293171372769649E+000
 0.292732626789987E+000
 0.292723604804173E+000
 0.292943229966659E+000
 0.288975793997915E+000
 0.287706843191229E+000
 0.288754856887907E+000
 0.288872655346522E+000
 0.286011380364412E+000
 0.285648343415072E+000
 0.284951921669405E+000
 0.285523530594132E+000
 0.294600597304755E+000
 0.290200361439806E+000
 0.291102377505426E+000
 0.292792282430838E+000
 0.283411386026868E+000
 0.283332104644215E+000
 0.282503626410771E+000
 0.282895682651557E+000
 0.284764360929398E+000
 0.287167342038835E+000
 0.286679931317518E+000
 0.285735747067003E+000
 0.286573318448059E+000
 0.287842715167800E+000
 0.287571768063033E+000
 0.287130056622491E+000
 0.291030214760670E+000
 0.290067597218827E+000
 0.292828158297897E+000
 0.291692996559629E+000
 0.281749314828465E+000
 0.281682614341962E+000
 0.281944546168509E+000
 0.281814580580056E+000
 0.282927115501392E+000
 0.282335929803119E+000
 0.282241760018267E+000
 0.282550879519499E+000
 0.287008261173698E+000
 0.287844720076310E+000
 0.287797475438007E+000
 0.287435604618388E+000
 0.282940427585722E+000
 0.283882575292179E+000
 0.283567153558835E+000
 0.283391697897406E+000
 0.283944433288185E+000
 0.283933961754362E+000
 0.285472248360916E+000
 0.284613628776081E+000
 0.286973969537914E+000
 0.287550751332350E+000
 0.287706216918297E+000
 0.287490321066091E+000
 0.281599850811209E+000
 0.281622726048256E+000
 0.281668964128007E+000
 0.281629782580123E+000
 0.288264068120506E+000
 0.288005848409817E+000
 0.288017148106750E+000
 0.288120679694690E+000
 0.283552132629571E+000
 0.286336168932916E+000
 0.283818670907685E+000
 0.284117893127511E+000
 0.284128945232534E+000
 0.285935522654744E+000