# vtk DataFile Version 3.0
Unstructured Grid
ASCII
DATASET UNSTRUCTURED_GRID
FIELD FieldData 1
TIME 1 1 float
  0.439931E+02
POINTS         1241 double
 0.000000000000000E+000 0.000000000000000E+000 0.000000000000000E+000
 0.100000000000000E+001 0.000000000000000E+000 0.000000000000000E+000
 0.100000000000000E+001 0.100000000000000E+001 0.000000000000000E+000
 0.000000000000000E+000 0.100000000000000E+001 0.000000000000000E+000
 0.125000000000000E+000 0.250000000000000E+000 0.000000000000000E+000
 0.375000000000000E+000 0.250000000000000E+000 0.000000000000000E+000
 0.375000000000000E+000 0.750000000000000E+000 0.000000000000000E+000
 0.125000000000000E+000 0.750000000000000E+000 0.000000000000000E+000
 0.625000000000000E+000 0.250000000000000E+000 0.000000000000000E+000
 0.875000000000000E+000 0.250000000000000E+000 0.000000000000000E+000
 0.875000000000000E+000 0.750000000000000E+000 0.000000000000000E+000
 0.625000000000000E+000 0.750000000000000E+000 0.000000000000000E+000
 0.100000000000000E+001 0.500000000000000E+000 0.000000000000000E+000
 0.000000000000000E+000 0.500000000000000E+000 0.000000000000000E+000
 0.500000000000000E+000 0.000000000000000E+000 0.000000000000000E+000
 0.125000000000000E+000 0.500000000000000E+000 0.000000000000000E+000
 0.000000000000000E+000 0.750000000000000E+000 0.000000000000000E+000
 0.000000000000000E+000 0.250000000000000E+000 0.000000000000000E+000
 0.000000000000000E+000 0.875000000000000E+000 0.000000000000000E+000
 0.308529810216860E+000 0.500255759132561E+000 0.000000000000000E+000
 0.250000000000000E+000 0.000000000000000E+000 0.000000000000000E+000
 0.125000000000000E+000 0.375000000000000E+000 0.000000000000000E+000
 0.125000000000000E+000 0.625000000000000E+000 0.000000000000000E+000
 0.000000000000000E+000 0.375000000000000E+000 0.000000000000000E+000
 0.000000000000000E+000 0.437500000000000E+000 0.000000000000000E+000
 0.625000000000000E-001 0.406250000000000E+000 0.000000000000000E+000
 0.125000000000000E+000 0.437500000000000E+000 0.000000000000000E+000
 0.216796875000000E+000 0.382812500000000E+000 0.000000000000000E+000
 0.183593750000000E+000 0.468750000000000E+000 0.000000000000000E+000
 0.375000000000000E+000 0.500000000000000E+000 0.000000000000000E+000
 0.250000000000000E+000 0.468750000000000E+000 0.000000000000000E+000
 0.625000000000000E-001 0.481770833333333E+000 0.000000000000000E+000
 0.184176834650379E+000 0.540399924344460E+000 0.000000000000000E+000
 0.216796875000000E+000 0.432195490056818E+000 0.000000000000000E+000
 0.168571309840426E+000 0.406250000000000E+000 0.000000000000000E+000
 0.125000000000000E+000 0.687500000000000E+000 0.000000000000000E+000
 0.255828208111702E+000 0.540763692652926E+000 0.000000000000000E+000
 0.375000000000000E+000 0.375000000000000E+000 0.000000000000000E+000
 0.375000000000000E+000 0.625000000000000E+000 0.000000000000000E+000
 0.220170948184400E+000 0.507406813570504E+000 0.000000000000000E+000
 0.219557967718869E+000 0.628145457476636E+000 0.000000000000000E+000
 0.125000000000000E+000 0.562500000000000E+000 0.000000000000000E+000
 0.000000000000000E+000 0.625000000000000E+000 0.000000000000000E+000
 0.375000000000000E+000 0.437500000000000E+000 0.000000000000000E+000
 0.280323303380492E+000 0.407503995028409E+000 0.000000000000000E+000
 0.375000000000000E+000 0.562500000000000E+000 0.000000000000000E+000
 0.219817452482738E+000 0.577034793653623E+000 0.000000000000000E+000
 0.885901781235304E-001 0.531250000000000E+000 0.000000000000000E+000
 0.312500000000000E+000 0.250000000000000E+000 0.000000000000000E+000
 0.297268942273640E+000 0.626076494243052E+000 0.000000000000000E+000
 0.168732375746058E+000 0.593750000000000E+000 0.000000000000000E+000
 0.173890458776596E+000 0.343750000000000E+000 0.000000000000000E+000
 0.183963193611824E+000 0.278873942859495E+000 0.000000000000000E+000
 0.250000000000000E+000 0.250000000000000E+000 0.000000000000000E+000
 0.237162500098357E+000 0.317347265649589E+000 0.000000000000000E+000
 0.250000000000000E+000 0.750000000000000E+000 0.000000000000000E+000
 0.292902283271084E+000 0.575476271929907E+000 0.000000000000000E+000
 0.125000000000000E+000 0.312500000000000E+000 0.000000000000000E+000
 0.585937500000000E-001 0.335937500000000E+000 0.000000000000000E+000
 0.000000000000000E+000 0.312500000000000E+000 0.000000000000000E+000
 0.336992576921227E+000 0.687500000000000E+000 0.000000000000000E+000
 0.312500000000000E+000 0.750000000000000E+000 0.000000000000000E+000
 0.270599706447422E+000 0.686880677247748E+000 0.000000000000000E+000
 0.500000000000000E+000 0.100000000000000E+001 0.000000000000000E+000
 0.250000000000000E+000 0.100000000000000E+001 0.000000000000000E+000
 0.375000000000000E+000 0.100000000000000E+001 0.000000000000000E+000
 0.281250000000000E+000 0.830729166666667E+000 0.000000000000000E+000
 0.343750000000000E+000 0.312500000000000E+000 0.000000000000000E+000
 0.318389033445014E+000 0.364242983277493E+000 0.000000000000000E+000
 0.267787317245899E+000 0.358095790057897E+000 0.000000000000000E+000
 0.289796410792034E+000 0.300414294603983E+000 0.000000000000000E+000
 0.274503756719177E+000 0.737152390322435E-001 0.000000000000000E+000
 0.343750000000000E+000 0.183159722222222E+000 0.000000000000000E+000
 0.246744791666667E+000 0.146267361111111E+000 0.000000000000000E+000
 0.485980902777778E+000 0.146267361111111E+000 0.000000000000000E+000
 0.302262721771688E+000 0.146267361111111E+000 0.000000000000000E+000
 0.274503756719177E+000 0.197313658770435E+000 0.000000000000000E+000
 0.375000000000000E+000 0.000000000000000E+000 0.000000000000000E+000
 0.420862160086615E+000 0.187832617434252E+000 0.000000000000000E+000
 0.384683294119816E+000 0.146267361111111E+000 0.000000000000000E+000
 0.330565923051619E+000 0.413335216176427E+000 0.000000000000000E+000
 0.352621063931298E+000 0.818811625318066E+000 0.000000000000000E+000
 0.312179705605879E+000 0.796288985503351E+000 0.000000000000000E+000
 0.500000000000000E+000 0.828697389616904E+000 0.000000000000000E+000
 0.427559261986282E+000 0.805138192500353E+000 0.000000000000000E+000
 0.399035374849065E+000 0.860999763838749E+000 0.000000000000000E+000
 0.312500000000000E+000 0.000000000000000E+000 0.000000000000000E+000
 0.187500000000000E+000 0.820606518817204E+000 0.000000000000000E+000
 0.466707069430364E+000 0.898575881689250E+000 0.000000000000000E+000
 0.511172798160702E+000 0.257526753061783E+000 0.000000000000000E+000
 0.453250172578119E+000 0.849294180402265E+000 0.000000000000000E+000
 0.937500000000000E-001 0.504496261452806E-001 0.000000000000000E+000
 0.403162177800535E+000 0.933291523780214E+000 0.000000000000000E+000
 0.437500000000000E+000 0.100000000000000E+001 0.000000000000000E+000
 0.312500000000000E+000 0.934315683855312E+000 0.000000000000000E+000
 0.453353205989905E+000 0.949647808263675E+000 0.000000000000000E+000
 0.358054120979715E+000 0.953547171775243E+000 0.000000000000000E+000
 0.325154404090345E+000 0.873991089312954E+000 0.000000000000000E+000
 0.367644435624882E+000 0.899055397729593E+000 0.000000000000000E+000
 0.236990017361111E+000 0.801449092741935E+000 0.000000000000000E+000
 0.443167922913219E+000 0.252288460541578E+000 0.000000000000000E+000
 0.477263196714215E+000 0.204401840413902E+000 0.000000000000000E+000
 0.562394794036017E+000 0.187447086349591E+000 0.000000000000000E+000
 0.625000000000000E+000 0.375000000000000E+000 0.000000000000000E+000
 0.407024191230044E+000 0.312500000000000E+000 0.000000000000000E+000
 0.474084945258901E+000 0.294963270028168E+000 0.000000000000000E+000
 0.216342369774119E+000 0.930487241414522E-001 0.000000000000000E+000
 0.157072243143605E+000 0.162201579117130E+000 0.000000000000000E+000
 0.187500000000000E+000 0.000000000000000E+000 0.000000000000000E+000
 0.174352819470591E+000 0.117036261141583E+000 0.000000000000000E+000
 0.125000000000000E+000 0.000000000000000E+000 0.000000000000000E+000
 0.218750000000000E+000 0.413079239859885E-001 0.000000000000000E+000
 0.131982343008202E+000 0.962324019836500E-001 0.000000000000000E+000
 0.866442243142230E-001 0.109366815743071E+000 0.000000000000000E+000
 0.000000000000000E+000 0.125000000000000E+000 0.000000000000000E+000
 0.156250000000000E+000 0.557461246091935E-001 0.000000000000000E+000
 0.343473007945752E+000 0.889135573360382E-001 0.000000000000000E+000
 0.316206161479800E+000 0.485604570335434E-001 0.000000000000000E+000
 0.430629647389619E+000 0.697713778434944E-001 0.000000000000000E+000
 0.391175490408355E+000 0.981202752650288E-001 0.000000000000000E+000
 0.444501950008550E+000 0.736368377006958E+000 0.000000000000000E+000
 0.398829470438439E+000 0.687500000000000E+000 0.000000000000000E+000
 0.513688817046671E+000 0.757625009132424E+000 0.000000000000000E+000
 0.625000000000000E+000 0.500000000000000E+000 0.000000000000000E+000
 0.473588841595499E+000 0.786756047776317E+000 0.000000000000000E+000
 0.478860669310979E+000 0.411527234375853E+000 0.000000000000000E+000
 0.572911532233985E+000 0.805885984489640E+000 0.000000000000000E+000
 0.447298813474571E+000 0.682006891579307E+000 0.000000000000000E+000
 0.504019394669429E+000 0.534902916754864E+000 0.000000000000000E+000
 0.486274863958833E+000 0.352843653662708E+000 0.000000000000000E+000
 0.551332894747653E+000 0.390873360445252E+000 0.000000000000000E+000
 0.433027718644055E+000 0.375926460599989E+000 0.000000000000000E+000
 0.437992666628316E+000 0.468750000000000E+000 0.000000000000000E+000
 0.421394775819071E+000 0.423093236096220E+000 0.000000000000000E+000
 0.501785840486804E+000 0.471105361968983E+000 0.000000000000000E+000
 0.433650269193003E+000 0.539110962574808E+000 0.000000000000000E+000
 0.559767288621728E+000 0.501013305633588E+000 0.000000000000000E+000
 0.473047166828055E+000 0.607447789310414E+000 0.000000000000000E+000
 0.551301338206151E+000 0.446268697831009E+000 0.000000000000000E+000
 0.625000000000000E+000 0.625000000000000E+000 0.000000000000000E+000
[...]
CELL_DATA         2368
SCALARS tdens double 1
LOOKUP_TABLE default
 0.645279884301247E-010
 0.127159605163468E-009
 0.364089155923310E-010
 0.728262155968382E-010
 0.140160949929171E-010
 0.164503163103635E-010
 0.152286643566605E-010
 0.151673323175235E-010
 0.196243346795382E-001
 0.113101788520502E+000
 0.355625227271751E-002
 0.754468513346795E-001
 0.246537232814290E+001
 0.675580799333806E-006
 0.246854164742670E+001
 0.592204839607181E-006
 0.282558901038862E-008
 0.132855798406601E-008
 0.184913400368531E-008
 0.196864798373511E-008
 0.543788156783349E-011
 0.512852825319134E-011
 0.518154397562049E-011
 0.525181073777568E-011
 0.266676676146210E-010
 0.106109191154696E-009
 0.613778326159217E-010
 0.462562135810701E-010
 0.128126127978649E-008
 0.131635791759036E-008
 0.637641994585315E-008
 0.146885471846024E-008
 0.858011729902387E-009
 0.106596257648824E-008
 0.595566738517355E-009
 0.786518819512316E-009
 0.150745013966180E-010
 0.140593024182414E-010
 0.155500117943267E-010
 0.148099713700672E-010
 0.163748065728558E-010
 0.178301853029753E-010
 0.189440249856107E-010
 0.176121268879180E-010
 0.742105859910262E-010
 0.621300529063133E-010
 0.445311281642535E-010
 0.570926629813449E-010
 0.181556943363266E-002
 0.486797105790820E-001
 0.599970036557703E-006
 0.364048985684276E-002
 0.122597107422831E-009
 0.108405895013119E-009
 0.175355550942225E-009
 0.120667483938765E-009
 0.504889507960456E-011
 0.493793544262313E-011
 0.506090858837996E-011
 0.499006915735232E-011
 0.196990601949810E-010
 0.234677120585074E-010
 0.203679003305902E-010
 0.213522895770179E-010
 0.315458208237868E-010
 0.252990036049949E-010
 0.344863741929164E-010
 0.298523736832851E-010
 0.666664251521948E-011
 0.705336668693770E-011
 0.689848797057506E-011
 0.681202471132411E-011
 0.800849247695559E-011
 0.119970790379876E-010
 0.735346567785625E-011
 0.824643903191854E-011
 0.729128743887839E-008
 0.418618599225572E-008
 0.142498353201102E-008
 0.437523218422889E-008
 0.438564124231300E-009
 0.203901388492606E-008
 0.489759861175350E-009
 0.468901099882385E-009
 0.172964994325935E-010
 0.100510049076677E-010
 0.151513512903348E-010
 0.124378484781482E-010
 0.131875582372903E-001
 0.598780523567427E-003
 0.247534368321198E-001
 0.346417444251707E-007
 0.654875514044380E-011
 0.677245340397740E-011
 0.700009488473583E-011
 0.677534769276895E-011
 0.220134720523573E+001
 0.407077138040954E+001
 0.102642989966681E+001
 0.986618154640472E-004
 0.633790421398916E-008
 0.232249170819269E-007
 0.207327868189821E+000
 0.760387092045222E-008
 0.710712682659150E-011
 0.662943901756226E-011
 0.717362597984641E-011
 0.685622221404964E-011
 0.778247745229044E-011
 0.730181339466370E-011
 0.814500131708118E-011
 0.767270132541387E-011
 0.840708830791532E-011
 0.879668485337588E-011
 0.802660047442727E-011
 0.837038724537108E-011
 0.842145997652615E-010
 0.103838388386923E-009
 0.178200748640109E-009
 0.114752184324584E-009
 0.392542438298106E-009
 0.219454067848641E-009
 0.416470485140248E-009
 0.367445527510207E-009
 0.187140379142613E-010
 0.105289517010271E-010
 0.118837038705503E-010
 0.124382104411896E-010
 0.843124499032889E-011
 0.829214342616276E-011
 0.823679537348985E-011
 0.832910874805234E-011
 0.460235289307586E-007
 0.426837810383983E-008
 0.411335806200643E-008
 0.463246524385497E-008
 0.132538077984530E-010
 0.878028331668794E-011
 0.132780147800268E-010
 0.103077201047099E-010
 0.128176018501794E-010
 0.107250153211583E-010
 0.225691090521550E-010
 0.133002623812999E-010
 0.872938272134376E-011
 0.874383044430280E-011
 0.918536124378229E-011
 0.883920064110388E-011
 0.859567578294670E-011
 0.853860491697721E-011
 0.835671658905290E-011
 0.849656209297792E-011
 0.835519340695181E-011
 0.702219348721878E-011
 0.100018605311131E-010
 0.769779404648547E-011
 0.107110840322853E-001
 0.966699387696725E-003
 0.271747800629002E-003
 0.677768704769781E-002
 0.237543711381637E-001
 0.598684948432464E-002
 0.191040439903343E-001
 0.513635630874351E-003
 0.195798715477221E-001
 0.223188084764090E-002
 0.501365189078331E-006
 0.721995827886281E-002
 0.293015333992490E-002
 0.201650523568196E-002
 0.109233573066855E-010
 0.234188404641331E-003
 0.337024189443594E+000
 0.410057500545523E+000
 0.649719662896147E-006
 0.163535100753595E+000
 0.121248902640093E-006
 0.734783165938210E-003
 0.714101701601304E-007
 0.210537446147604E-006
 0.269084058556968E-003
 0.274934060649191E-003
 0.379447195558226E-006
 0.820304688223811E-002
 0.954613718663459E-011
 0.937672346940322E-011
 0.866552627871980E-011
 0.908631568872311E-011
 0.101629818376926E-009
 0.654362084302620E-010
 0.805109652925799E-010
 0.835302256662475E-010
 0.812143100577245E-011
 0.817848317779206E-011
 0.792500847098731E-011
 0.801785743581470E-011
 0.981267696485958E-011
 0.860956342069863E-011
 0.849819340447105E-011
 0.860329058816970E-011
 0.290899499029367E-003
 0.276858649958643E-003
 0.240492818532562E-002
 0.510267670035002E-002
 0.678249982073878E-009
 0.160493535401820E-009
 0.273528229429139E-003
 0.189887533542382E-009
 0.691948835045443E-003
 0.224693423573143E+000
 0.549264745619348E-002
 0.249927847539035E-001
 0.134155469955647E-007
 0.302349059016503E-008
 0.569326346314623E-008
 0.378699145245500E-008
 0.349443383660713E-003
 0.926104601095267E-009
 0.580755197895260E-008
 0.174635134443587E-008
 0.232584358783795E-002
 0.406506244848924E-003
 0.130065163019384E-008
 0.105653212181351E-002
 0.108236663097301E+000
 0.268964619430931E-007
 0.634574536602618E+000
 0.329493923477001E+000
 0.813303989432202E-011
 0.775687942290680E-011
 0.778272055894170E-011
 0.791269437678328E-011
 0.180277054432439E-007
 0.227766034583564E-005
 0.405112961215331E+000
 0.168858428579819E-007
 0.398306828507212E-010
 0.597802159354769E-010
 0.224624220238613E-010
 0.323307902418607E-010
 0.195722586740844E-010
 0.179721422769459E-010
 0.216087383380185E-010
 0.193498358107367E-010
 0.423342655861011E-010
 0.510451425416187E-010
 0.685783616987402E-010
 0.535952570682590E-010
 0.473829446173121E-008
 0.962752555182381E-008
 0.365272521112591E-008
 0.605154259430742E-008
 0.400371580124785E-010
 0.372318828783228E-010
 0.505105902746418E-010
 0.408560249329758E-010
 0.273930940490371E-006
 0.412157942647962E+000
 0.141555603844955E-006
 0.875504271406611E-007
 0.107556713991366E-001
 0.473681574600493E-003
 0.821628874452977E-001
 0.319228648712183E-005
 0.711011222339285E-008
 0.600943411282575E-007
 0.493318058989425E-008
 0.781994744690867E-008
 0.535008061716990E-009
 0.141494478283754E-008
 0.694820455168076E-009
 0.725909489219855E-009
 0.340582376974318E-009
 0.196241157686720E-001
 0.158711827353310E-002
 0.316672753722630E-003
 0.115010700858942E-009
 0.890245215313730E-010
 0.196425445743257E-009
 0.109786656344520E-009
 0.934516272204762E-011
 0.876494220839712E-011
 0.109602421516614E-010
 0.917529616144894E-011
 0.728878977883641E-007
 0.295257229883962E-007
 0.102894570178900E-007
 0.834089227273254E-008
 0.806705802829777E-008
 0.114689400512405E-007
 0.452908215552353E-005
 0.174672616568596E-007
 0.379247804985785E-008
 0.643094369415811E-008
 0.559265652806061E-008
 0.601790898004501E-008
 0.686945558684131E-009
 0.137907468314788E-009
 0.164877032433432E-009
 0.197411754446171E-009
 0.111128970567910E-008
 0.742331219516313E-009
 0.405568603352870E-008
 0.913118593783286E-009
 0.113032699594838E-007
 0.828695079805260E-007
 0.737525899282587E-001
 0.111709374904835E-006
 0.174833364916726E-008
 0.179608960976281E-008
 0.224962371191653E-008
 0.220991046713615E-008
 0.725496422962573E-008
 0.218986562727969E-007
 0.407084758376674E-008
 0.532821652677644E-008
 0.171243560690453E-001
 0.994734473423460E-010
 0.242543068770912E-003
 0.276804903366988E-002
 0.146882551446464E-010
 0.101723433705387E-010
 0.165464515192138E-010
 0.130982529337133E-010
 0.865692991439738E-011
 0.797255914478030E-011
 0.901406952983641E-011
 0.850082185713526E-011
 0.135215318115914E-006
 0.299008733575347E-007
 0.177026610393409E+001
 0.117928181275454E-006
 0.111473531982851E-008
 0.460854024367654E-009
 0.117041510215193E-008
 0.128553914345492E-008
 0.158972965790464E-007
 0.912674772365950E-008
 0.108016827674456E+000
 0.881019692232997E-008
 0.535074186709396E-009
 0.942161273330412E-009
 0.135932437501550E-008
 0.105862918314787E-008
 0.235033204223320E-001
 0.495491009527121E-009
 0.227353792269108E-002
 0.498344106736422E-002
 0.244959412254328E-009
 0.137398408113657E-009
 0.968235603259574E-009
 0.222499969871268E-009
 0.292041965511265E-008
 0.545157711892456E-009
 0.215305955057833E-002
 0.173207838714239E-007
 0.149011119123641E-008
 0.178430794189778E-008
 0.252300007395721E-008
 0.348533135123188E-008
 0.208169019530873E-010
 0.639090808606952E-010
 0.117861269517440E-009
 0.531034197152749E-010
 0.213123850816145E-007
 0.336454834193181E-007
 0.158742407193158E-001
 0.282341898597144E-007
 0.140739159941269E-009
 0.299045321337284E-009
 0.240480607155826E-009
 0.219885152026985E-009
 0.136757687915378E-008
 0.240557203804015E-008
 0.546180662417996E-008
 0.262610515984876E-008
 0.859775580468103E-002
 0.174053471363348E+000
 0.339534779746453E+000
 0.104103418121584E-008
 0.452060859906182E-010
 0.290667532347074E-010
 0.333530875817965E-010
 0.354735978679884E-010
 0.464904252714835E-008
 0.393983238436188E-008
 0.286516087614750E-008
 0.282029633596090E-008
 0.676764146051338E-003
 0.209261242083851E+000
 0.463647384264380E+000
 0.222233402228416E+000
 0.627179052138124E-008
 0.868450646815873E-008
 0.189827928339884E+001
 0.124299767244595E-007
 0.185821322660962E-008
 0.166004734985003E-008
 0.905909786387537E-009
 0.121169336722694E-008
 0.970255636964266E-010
 0.929789526538077E-010
 0.199284012395167E-010
 0.404474229242058E-010
 0.124202230698912E+001
 0.200532031411910E-002
 0.270818038581407E-002
 0.327946877355897E-004
 0.788854110394183E-011
 0.836009766543952E-011
 0.845021617418244E-011
 0.817756485670972E-011
 0.892183889778972E-011
 0.984891844824998E-011
 0.866464801593885E-011
 0.910287767915940E-011
 0.509674330170895E-008
 0.302625200114302E-007
 0.174617552516960E-007
 0.344622108508464E-007
 0.909435387408888E-011
 0.877080319296221E-011
 0.876267222781570E-011
 0.887189510489574E-011
 0.232656489795075E-008
 0.371672865989456E-008
 0.321593000327940E-008
 0.415764165346488E-008
 0.218123748108047E-007
 0.634428775191532E+000
 0.618939910601309E-004
 0.662813592204788E-004
 0.590771365300930E+000
 0.625658296954007E+000
 0.426985236853872E-008
 0.209624486265832E+000
 0.248138069549604E-003
 0.126188711459956E-002
 0.289909528122039E-001
 0.848260241242077E-002
 0.984862630170579E-009
 0.158302140933481E-008
 0.234351607835206E-008
 0.269562809658248E-008
 0.540212822280674E-009
 0.240000617701318E-009
 0.457253001755680E-009
 0.424849337058565E-009
 0.172173798561950E-009
 0.266877445633903E-009
 0.314863005183055E-009
 0.260404136661341E-009
 0.148953907273394E-008
 0.290120982012836E-008
 0.766351030271057E-008
 0.291918473407010E-008
 0.565870168359767E-010
 0.575632086038769E-010
 0.752248177165425E-010
 0.597411322259918E-010
 0.401790709637150E-010
 0.398009986571083E-010
 0.569599572143309E-010
 0.427298971179942E-010
 0.526636107773973E-001
 0.320129106401516E-001
 0.840013837550122E-002
 0.566353366142065E-002
 0.322162449411635E-008
 0.735442932837590E-009
 0.976090549125849E-009
 0.972447318404329E-009
 0.155383908382330E-009
 0.406529526219606E-009
 0.336290258531535E-009
 0.299525646497255E-009
 0.170279282317693E-008
 0.301014803856669E-008
 0.433686362191345E-008
 0.483142623420028E-008
 0.246420574296907E+001
 0.817356478432235E-007
 0.253552417051172E+001
 0.836442410726301E-002
 0.172664297624611E+001
 0.581353243944202E+000
 0.211814293096883E-007
 0.573463946144436E+000
 0.428659726467358E-009
 0.553743252406358E-009
 0.126085287478467E-008
 0.574735547636544E-009
 0.197219692666594E-008
 0.736159084807750E-009
 0.319883429307077E-008
 0.205534488623293E-008
 0.236061060199861E-010
 0.222075871551508E-010
 0.276939706260179E-010
 0.240205205012653E-010
 0.377011693952059E-010
 0.500568554293818E-010
 0.357235793552616E-010
 0.399596929222455E-010
 0.163659464506824E-007
 0.621799047391542E+000
 0.730182933621855E-009
 0.170745889937660E-007
 0.285413683682816E-010
 0.485001227501985E-010
 0.299448715722645E-010
 0.333040123631406E-010
 0.630483218537120E-003
 0.240810322951542E-003
 0.205320987637757E-003
 0.748026463880926E-002
 0.910392833956611E-011
 0.687754311235422E-011
 0.125850690326456E-010
 0.861150700946028E-011
 0.246254373106348E-010
 0.293126948693374E-010
 0.250476462510517E-010
 0.259987843939641E-010
 0.426557819972616E-010
 0.361392231483848E-010
 0.320077361436429E-010
 0.359085038284742E-010
 0.210660184977312E-009
 0.952114224802013E-010
 0.198417407344034E-009
 0.169819285258767E-009
 0.207951643394149E-009
 0.529235380408314E-010
 0.343591445684872E-010
 0.512469462864135E-010
 0.248449460037779E-009
 0.102615936374368E-009
 0.224756067462060E-009
 0.167096008466962E-009
 0.180275704689027E-009
 0.834030364189439E-010
 0.800316672306958E-010
 0.929898167498854E-010
 0.992023516901654E-011
 0.989930626825858E-011
 0.121200182711965E-010
 0.103888864123400E-010
 0.221259608083853E-009
 0.118374242255192E-009
 0.189412348070722E-009
 0.186946089272628E-009
 0.552360528978200E-010
 0.555960143671310E-010
 0.384295168487310E-010
 0.489931816565010E-010
 0.209946236815060E-010
 0.281112765863426E-010
 0.264933198203689E-010
 0.250147886195773E-010
 0.854459653630229E-009
 0.461863486147634E-009
 0.796765817424590E-009
 0.749386063848522E-009
 0.233640951344727E-010
 0.308221070178245E-010
 0.295845743810828E-010
 0.276154892231089E-010
 0.226194588008469E-009
 0.140530424136317E-009
 0.195610559474548E-009
 0.201928204714617E-009
 0.289509341702129E-010
 0.257093124899249E-010
 0.242503730647842E-010
 0.261639923986416E-010
 0.134100802463893E-008
 0.113156939481099E-008
 0.282729994011267E-008
 0.169814950681898E-008
 0.759317991559945E-010
 0.111063332490922E-009
 0.632521237581740E-010
 0.767857760674779E-010
 0.145200422212956E-008
 0.600380070206590E-009
 0.176504083686366E-008
 0.152288645917990E-008
 0.545383209635258E-007
 0.497378090362910E-008
 0.131379916388717E+001
 0.361289729844490E-007
 0.428052757279879E-009
 0.757013432147513E-009
 0.487241110568887E-009
 0.550037261320928E-009
 0.125918446189675E-009
 0.226921280784941E-009
 0.731097518012933E-010
 0.107475332734080E-009
 0.107016074064001E-007
 0.264541263132643E+000
 0.742245924341889E+000
 0.221416315195318E+000
 0.108798164198281E-009
 0.867941230503070E-010
 0.644431192071014E-010
 0.869471596831759E-010
 0.311528661781118E-009
 0.604304795863610E-009
 0.691114907659930E-009
 0.573251778170058E-009
 0.114034362123823E-010
 0.160100160076438E-010
 0.263009598342613E-010
 0.151578793171238E-010
 0.347148008615524E-010
 0.374902779935081E-010
 0.434714254857020E-010
 0.393139902544522E-010
 0.649934837984120E-011
 0.588932013285443E-011
 0.638048237745819E-011
 0.625565873900722E-011
 0.498845273549431E-009
 0.256378906798869E-009
 0.227826196312787E-009
 0.268188926850376E-009
 0.211858096238377E-010
 0.117281704436437E-010
 0.142039343512178E-010
 0.149104921587384E-010
 0.217888740258914E-009
 0.178277997652967E-009
 0.318726423000801E-009
 0.202493729123196E-009
 0.360271507591485E-010
 0.387978830408066E-010
 0.470638425198419E-010
 0.398690304286725E-010
 0.618583301232571E-011
 0.646248662327164E-011
 0.768959691863997E-011
 0.678604643345644E-011
 0.139766666102664E-009
 0.166054795198163E-009
 0.363226246186779E-009
 0.184379166484522E-009
 0.152437343384961E-009
 0.177840285666866E-009
 0.111027587723578E-009
 0.139780561994429E-009
 0.318157134386282E-009
 0.328301803467656E-009
 0.226396416539396E-009
 0.351432321397402E-009
 0.492601900271160E-010
 0.438415520743403E-010
 0.481682720316591E-010
 0.461737881288503E-010
 0.185807760295858E-010
 0.206510887493428E-010
 0.224878624081709E-010
 0.206052247591307E-010
 0.341094818966940E-009
 0.327896223192518E-010
 0.661313104720445E-010
 0.537283661425224E-010
 0.367573197965331E-010
 0.441824660679072E-010
 0.411602924338361E-010
 0.398171698791823E-010
 0.148148549760708E-009
 0.283265088076255E-009
 0.354145220831535E-009
 0.259316601811866E-009
 0.127829984646183E-010
 0.156818524302297E-010
 0.132268342536348E-010
 0.139277059915060E-010
 0.471673784504754E-010
 0.442023302580493E-010
 0.484628249907845E-010
 0.466257176613947E-010
 0.277008795854502E-010
 0.336353118453481E-010
 0.325375990937364E-010
 0.303234354588242E-010
 0.435629572077642E-010
 0.714087740550351E-010
 0.636378381082520E-010
 0.615029239721755E-010
 0.179707542565845E-009
 0.138970329244701E-009
 0.333313096317196E-009
 0.190531097835378E-009
 0.515364505588394E-010
 0.722846939281404E-010
 0.417286954436824E-010
 0.514974460014224E-010
 0.425093259700202E-010
 0.585770032264054E-010
 0.515123638798119E-010
 0.500867896619941E-010
 0.103370166029875E-009
 0.128741886856701E-009
 0.847228368370671E-010
 0.101097170714757E-009
 0.230272310014022E-009
 0.219161961806622E-008
 0.428819660375781E-009
 0.660301196389846E-009
 0.120437067725568E+000
 0.258705932310250E-003
 0.569960553979323E-004
 0.102680944880997E-001
 0.272825503259942E-010
 0.299543469942499E-010
 0.228938506807749E-010
 0.269229063986005E-010
 0.463208338960140E-010
 0.372430121728586E-010
 0.488870694518334E-010
 0.443338174570423E-010
 0.197435020041032E-010
 0.247720674214344E-010
 0.210491556756043E-010
 0.214330180338477E-010
 0.338691356613435E-010
 0.415164341797597E-010
 0.314054377502740E-010
 0.350704099616219E-010
 0.113813263660010E-010
 0.125033520403007E-010
 0.123727045083361E-010
 0.119141828809709E-010
 0.160917599879279E-010
 0.159511758881542E-010
 0.182772160443042E-010
 0.167757839437495E-010
 0.132145400738178E+001
 0.996571863150167E+000
 0.638204317279658E-007
 0.758270276006868E+000
 0.129416402880112E-008
 0.347670779387378E-008
 0.266429199181207E-008
 0.332937680180032E-008
 0.908690165715022E-010
 0.632616859032226E-010
 0.105382954003535E-009
 0.847750033887477E-010
 0.985636362260098E-010
 0.597164908268991E-010
 0.628574030042759E-010
 0.671080831930022E-010
 0.628597425100777E-010
 0.552458298729104E-010
 0.781584197885972E-010
 0.619217851415822E-010
 0.232334610239218E-008
 0.190681395637760E-008
 0.988084833602132E-009
 0.161468479651415E-008
 0.504305026996793E-005
 0.513289759643142E-009
 0.195370559639172E-009
 0.249101076049535E-002
 0.131139201745178E-010
 0.127346285481370E-010
 0.107708958497347E-010
 0.120759420521027E-010
 0.154941894823280E-008
 0.485149408344373E-003
 0.116789683469021E-001
 0.194091014358247E-001
 0.873902188549317E-011
 0.947779979556894E-011
 0.670127604701451E-011
 0.782484670588990E-011
 0.127513976116918E-010
 0.276179886854741E-010
 0.305310498847402E-010
 0.210716651916997E-010
 0.167964663906288E-010
 0.233785139800775E-010
 0.265945480854570E-010
 0.215990357010184E-010
 0.135911917958657E-001
 0.912923813547086E-010
 0.268286631384664E-008
 0.848500177196855E-003
 0.575592530209812E-011
 0.520999777789750E-011
 0.598841533955650E-011
 0.552088455303686E-011
 0.893453268157436E-011
 0.697660551456661E-011
 0.623862918104192E-011
 0.730407889862925E-011
 0.156210048737700E-010
 0.189273155188532E-010
 0.201943249287594E-010
 0.180175074604461E-010
 0.707556261664353E-011
 0.871535887453410E-011
 0.845274836004182E-011
 0.790434051462641E-011
 0.135527686868003E-010
 0.109654546822238E-010
 0.250378512745008E-010
 0.143159666821651E-010
 0.154907341841589E-010
 0.169085050430494E-010
 0.180827588775158E-010
 0.166305422497634E-010
 0.509639158045217E-011
 0.511290008804656E-011
 0.540239760422424E-011
 0.517559265800789E-011
 0.201466732482645E-010
 0.177140899128681E-010
 0.183946041876096E-010
 0.188917179774937E-010
 0.335504206031939E-002
 0.175648870754405E-003
 0.466071911108432E-001
 0.285733527703686E-002
 0.211107801657060E-010
 0.441669513714513E-010