# vtk DataFile Version 3.0
Unstructured Grid
ASCII
DATASET UNSTRUCTURED_GRID
FIELD FieldData 1
TIME 1 1 float
  0.197708E+02
POINTS         1241 double
 0.000000000000000E+000 0.000000000000000E+000 0.000000000000000E+000
 0.100000000000000E+001 0.000000000000000E+000 0.000000000000000E+000
 0.100000000000000E+001 0.100000000000000E+001 0.000000000000000E+000
 0.000000000000000E+000 0.100000000000000E+001 0.000000000000000E+000
 0.125000000000000E+000 0.250000000000000E+000 0.000000000000000E+000
 0.375000000000000E+000 0.250000000000000E+000 0.000000000000000E+000
 0.375000000000000E+000 0.750000000000000E+000 0.000000000000000E+000
 0.125000000000000E+000 0.750000000000000E+000 0.000000000000000E+000
 0.625000000000000E+000 0.250000000000000E+000 0.000000000000000E+000
 0.875000000000000E+000 0.250000000000000E+000 0.000000000000000E+000
 0.875000000000000E+000 0.750000000000000E+000 0.000000000000000E+000
 0.625000000000000E+000 0.750000000000000E+000 0.000000000000000E+000
 0.100000000000000E+001 0.500000000000000E+000 0.000000000000000E+000
 0.000000000000000E+000 0.500000000000000E+000 0.000000000000000E+000
 0.500000000000000E+000 0.000000000000000E+000 0.000000000000000E+000
 0.125000000000000E+000 0.500000000000000E+000 0.000000000000000E+000
 0.000000000000000E+000 0.750000000000000E+000 0.000000000000000E+000
 0.000000000000000E+000 0.250000000000000E+000 0.000000000000000E+000
 0.000000000000000E+000 0.875000000000000E+000 0.000000000000000E+000
 0.308529810216860E+000 0.500255759132561E+000 0.000000000000000E+000
 0.250000000000000E+000 0.000000000000000E+000 0.000000000000000E+000
 0.125000000000000E+000 0.375000000000000E+000 0.000000000000000E+000
 0.125000000000000E+000 0.625000000000000E+000 0.000000000000000E+000
 0.000000000000000E+000 0.375000000000000E+000 0.000000000000000E+000
 0.000000000000000E+000 0.437500000000000E+000 0.000000000000000E+000
 0.625000000000000E-001 0.406250000000000E+000 0.000000000000000E+000
 0.125000000000000E+000 0.437500000000000E+000 0.000000000000000E+000
 0.216796875000000E+000 0.382812500000000E+000 0.000000000000000E+000
 0.183593750000000E+000 0.468750000000000E+000 0.000000000000000E+000
 0.375000000000000E+000 0.500000000000000E+000 0.000000000000000E+000
 0.250000000000000E+000 0.468750000000000E+000 0.000000000000000E+000
 0.625000000000000E-001 0.481770833333333E+000 0.000000000000000E+000
 0.184176834650379E+000 0.540399924344460E+000 0.000000000000000E+000
 0.216796875000000E+000 0.432195490056818E+000 0.000000000000000E+000
 0.168571309840426E+000 0.406250000000000E+000 0.000000000000000E+000
 0.125000000000000E+000 0.687500000000000E+000 0.000000000000000E+000
 0.255828208111702E+000 0.540763692652926E+000 0.000000000000000E+000
 0.375000000000000E+000 0.375000000000000E+000 0.000000000000000E+000
 0.375000000000000E+000 0.625000000000000E+000 0.000000000000000E+000
 0.220170948184400E+000 0.507406813570504E+000 0.000000000000000E+000
 0.219557967718869E+000 0.628145457476636E+000 0.000000000000000E+000
 0.125000000000000E+000 0.562500000000000E+000 0.000000000000000E+000
 0.000000000000000E+000 0.625000000000000E+000 0.000000000000000E+000
 0.375000000000000E+000 0.437500000000000E+000 0.000000000000000E+000
 0.280323303380492E+000 0.407503995028409E+000 0.000000000000000E+000
 0.375000000000000E+000 0.562500000000000E+000 0.000000000000000E+000
 0.219817452482738E+000 0.577034793653623E+000 0.000000000000000E+000
 0.885901781235304E-001 0.531250000000000E+000 0.000000000000000E+000
 0.312500000000000E+000 0.250000000000000E+000 0.000000000000000E+000
 0.297268942273640E+000 0.626076494243052E+000 0.000000000000000E+000
 0.168732375746058E+000 0.593750000000000E+000 0.000000000000000E+000
 0.173890458776596E+000 0.343750000000000E+000 0.000000000000000E+000
 0.183963193611824E+000 0.278873942859495E+000 0.000000000000000E+000
 0.250000000000000E+000 0.250000000000000E+000 0.000000000000000E+000
 0.237162500098357E+000 0.317347265649589E+000 0.000000000000000E+000
 0.250000000000000E+000 0.750000000000000E+000 0.000000000000000E+000
 0.292902283271084E+000 0.575476271929907E+000 0.000000000000000E+000
 0.125000000000000E+000 0.312500000000000E+000 0.000000000000000E+000
 0.585937500000000E-001 0.335937500000000E+000 0.000000000000000E+000
 0.000000000000000E+000 0.312500000000000E+000 0.000000000000000E+000
 0.336992576921227E+000 0.687500000000000E+000 0.000000000000000E+000
 0.312500000000000E+000 0.750000000000000E+000 0.000000000000000E+000
 0.270599706447422E+000 0.686880677247748E+000 0.000000000000000E+000
 0.500000000000000E+000 0.100000000000000E+001 0.000000000000000E+000
 0.250000000000000E+000 0.100000000000000E+001 0.000000000000000E+000
 0.375000000000000E+000 0.100000000000000E+001 0.000000000000000E+000
 0.281250000000000E+000 0.830729166666667E+000 0.000000000000000E+000
 0.343750000000000E+000 0.312500000000000E+000 0.000000000000000E+000
 0.318389033445014E+000 0.364242983277493E+000 0.000000000000000E+000
 0.267787317245899E+000 0.358095790057897E+000 0.000000000000000E+000
 0.289796410792034E+000 0.300414294603983E+000 0.000000000000000E+000
 0.274503756719177E+000 0.737152390322435E-001 0.000000000000000E+000
 0.343750000000000E+000 0.183159722222222E+000 0.000000000000000E+000
 0.246744791666667E+000 0.146267361111111E+000 0.000000000000000E+000
 0.485980902777778E+000 0.146267361111111E+000 0.000000000000000E+000
 0.302262721771688E+000 0.146267361111111E+000 0.000000000000000E+000
 0.274503756719177E+000 0.197313658770435E+000 0.000000000000000E+000
 0.375000000000000E+000 0.000000000000000E+000 0.000000000000000E+000
 0.420862160086615E+000 0.187832617434252E+000 0.000000000000000E+000
 0.384683294119816E+000 0.146267361111111E+000 0.000000000000000E+000
 0.330565923051619E+000 0.413335216176427E+000 0.000000000000000E+000
 0.352621063931298E+000 0.818811625318066E+000 0.000000000000000E+000
 0.312179705605879E+000 0.796288985503351E+000 0.000000000000000E+000
 0.500000000000000E+000 0.828697389616904E+000 0.000000000000000E+000
 0.427559261986282E+000 0.805138192500353E+000 0.000000000000000E+000
 0.399035374849065E+000 0.860999763838749E+000 0.000000000000000E+000
 0.312500000000000E+000 0.000000000000000E+000 0.000000000000000E+000
 0.187500000000000E+000 0.820606518817204E+000 0.000000000000000E+000
 0.466707069430364E+000 0.898575881689250E+000 0.000000000000000E+000
 0.511172798160702E+000 0.257526753061783E+000 0.000000000000000E+000
 0.453250172578119E+000 0.849294180402265E+000 0.000000000000000E+000
 0.937500000000000E-001 0.504496261452806E-001 0.000000000000000E+000
 0.403162177800535E+000 0.933291523780214E+000 0.000000000000000E+000
 0.437500000000000E+000 0.100000000000000E+001 0.000000000000000E+000
 0.312500000000000E+000 0.934315683855312E+000 0.000000000000000E+000
 0.453353205989905E+000 0.949647808263675E+000 0.000000000000000E+000
 0.358054120979715E+000 0.953547171775243E+000 0.000000000000000E+000
 0.325154404090345E+000 0.873991089312954E+000 0.000000000000000E+000
 0.367644435624882E+000 0.899055397729593E+000 0.000000000000000E+000
 0.236990017361111E+000 0.801449092741935E+000 0.000000000000000E+000
 0.443167922913219E+000 0.252288460541578E+000 0.000000000000000E+000
 0.477263196714215E+000 0.204401840413902E+000 0.000000000000000E+000
 0.562394794036017E+000 0.187447086349591E+000 0.000000000000000E+000
 0.625000000000000E+000 0.375000000000000E+000 0.000000000000000E+000
 0.407024191230044E+000 0.312500000000000E+000 0.000000000000000E+000
 0.474084945258901E+000 0.294963270028168E+000 0.000000000000000E+000
 0.216342369774119E+000 0.930487241414522E-001 0.000000000000000E+000
 0.157072243143605E+000 0.162201579117130E+000 0.000000000000000E+000
 0.187500000000000E+000 0.000000000000000E+000 0.000000000000000E+000
 0.174352819470591E+000 0.117036261141583E+000 0.000000000000000E+000
 0.125000000000000E+000 0.000000000000000E+000 0.000000000000000E+000
 0.218750000000000E+000 0.413079239859885E-001 0.000000000000000E+000
 0.131982343008202E+000 0.962324019836500E-001 0.000000000000000E+000
 0.866442243142230E-001 0.109366815743071E+000 0.000000000000000E+000
 0.000000000000000E+000 0.125000000000000E+000 0.000000000000000E+000
 0.156250000000000E+000 0.557461246091935E-001 0.000000000000000E+000
 0.343473007945752E+000 0.889135573360382E-001 0.000000000000000E+000
 0.316206161479800E+000 0.485604570335434E-001 0.000000000000000E+000
 0.430629647389619E+000 0.697713778434944E-001 0.000000000000000E+000
 0.391175490408355E+000 0.981202752650288E-001 0.000000000000000E+000
 0.444501950008550E+000 0.736368377006958E+000 0.000000000000000E+000
 0.398829470438439E+000 0.687500000000000E+000 0.000000000000000E+000
 0.513688817046671E+000 0.757625009132424E+000 0.000000000000000E+000
 0.625000000000000E+000 0.500000000000000E+000 0.000000000000000E+000
 0.473588841595499E+000 0.786756047776317E+000 0.000000000000000E+000
 0.478860669310979E+000 0.411527234375853E+000 0.000000000000000E+000
 0.572911532233985E+000 0.805885984489640E+000 0.000000000000000E+000
 0.447298813474571E+000 0.682006891579307E+000 0.000000000000000E+000
 0.504019394669429E+000 0.534902916754864E+000 0.000000000000000E+000
 0.486274863958833E+000 0.352843653662708E+000 0.000000000000000E+000
 0.551332894747653E+000 0.390873360445252E+000 0.000000000000000E+000
 0.433027718644055E+000 0.375926460599989E+000 0.000000000000000E+000
 0.437992666628316E+000 0.468750000000000E+000 0.000000000000000E+000
 0.421394775819071E+000 0.423093236096220E+000 0.000000000000000E+000
 0.501785840486804E+000 0.471105361968983E+000 0.000000000000000E+000
 0.433650269193003E+000 0.539110962574808E+000 0.000000000000000E+000
 0.559767288621728E+000 0.501013305633588E+000 0.000000000000000E+000
 0.473047166828055E+000 0.607447789310414E+000 0.000000000000000E+000
 0.551301338206151E+000 0.446268697831009E+000 0.000000000000000E+000
 0.625000000000000E+000 0.625000000000000E+000 0.000000000000000E+000
[...]
CELL_DATA         2368
SCALARS tdens double 1
LOOKUP_TABLE default
 0.191421619158744E-002
 0.252842391028996E-002
 0.122609354019671E-002
 0.194320871322281E-002
 0.617890630764438E-003
 0.713977380185464E-003
 0.665688137628896E-003
 0.664088919838524E-003
 0.205348846273085E-001
 0.434758766364542E-001
 0.245292792557942E-001
 0.225836041250115E-001
 0.244133882024391E-001
 0.309829891298895E-001
 0.212057541635452E-001
 0.226942246519214E-001
 0.580614542140751E-001
 0.254581011851860E-001
 0.438701424594037E-001
 0.440178700599754E-001
 0.258134514618930E-003
 0.245678014103639E-003
 0.247903382667154E-003
 0.250723526215384E-003
 0.536688098864424E-003
 0.789054232803009E-003
 0.586817193735017E-003
 0.570525468676773E-003
 0.116187102772488E-001
 0.120379091283845E-001
 0.161591175721254E-001
 0.129251613060968E-001
 0.162386600082170E-001
 0.246245412483212E-001
 0.144058962275447E-001
 0.163340981097321E-001
 0.670143648112041E-003
 0.628628474065958E-003
 0.689440016035437E-003
 0.659516925956386E-003
 0.710967213522690E-003
 0.768070796242130E-003
 0.809426081103397E-003
 0.758159719355840E-003
 0.261560086703646E-002
 0.220566325324432E-002
 0.169085651087209E-002
 0.207378802499183E-002
 0.702038904411441E-001
 0.324837406625363E-001
 0.306278501856718E-001
 0.382767387488095E-001
 0.482195106406664E-002
 0.436235952913178E-002
 0.688481310366109E-002
 0.483360837998755E-002
 0.242447305516385E-003
 0.237515953359541E-003
 0.242811587364585E-003
 0.239810136424798E-003
 0.856571856727728E-003
 0.100521228068840E-002
 0.884448515539337E-003
 0.921867412353681E-003
 0.124557945400745E-002
 0.103147745161896E-002
 0.129836657256115E-002
 0.117543587341445E-002
 0.310282458541199E-003
 0.327229244763240E-003
 0.317720538767171E-003
 0.315792426143132E-003
 0.309352908903959E-003
 0.330727052952751E-003
 0.299872163265723E-003
 0.303721073742763E-003
 0.153951213877853E-001
 0.143823384378178E-001
 0.123023964934148E-001
 0.142225952957294E-001
 0.956650496438445E-002
 0.219906239726000E-001
 0.913622664312696E-002
 0.102899035752331E-001
 0.591284959211848E-003
 0.463914836115987E-003
 0.482051904114377E-003
 0.497127149861899E-003
 0.290319260394720E-001
 0.333117928227168E-001
 0.124056066898595E-001
 0.138238430695685E-001
 0.308556007680962E-003
 0.307424628971410E-003
 0.326014489889001E-003
 0.313755433920183E-003
 0.723375236904070E-001
 0.158165775033905E+000
 0.198195981176372E+000
 0.127647489617318E+000
 0.228638212455064E-001
 0.261030274159265E-001
 0.359849451574032E-001
 0.233029210012743E-001
 0.332198791413973E-003
 0.315675316698310E-003
 0.334173672553498E-003
 0.324952390741066E-003
 0.324376585206258E-003
 0.324421196662851E-003
 0.353433408447833E-003
 0.333604526705649E-003
 0.391786964474180E-003
 0.408452570438082E-003
 0.375881981947604E-003
 0.391829273932168E-003
 0.279505599454119E-002
 0.338917205856322E-002
 0.509440862202738E-002
 0.368420801598263E-002
 0.932232262431514E-002
 0.630022335675526E-002
 0.966039621051750E-002
 0.886597530829176E-002
 0.640859951364847E-003
 0.440099207806321E-003
 0.486315943735685E-003
 0.497078720419814E-003
 0.379719134831283E-003
 0.382864392682281E-003
 0.379816195522226E-003
 0.381077965442883E-003
 0.266435701453090E-001
 0.230882117781712E-001
 0.230039252267176E-001
 0.227942509522425E-001
 0.439410004284436E-003
 0.400528357194199E-003
 0.430122818078841E-003
 0.423084067762771E-003
 0.472702007349923E-003
 0.441391764624948E-003
 0.679972381350183E-003
 0.500297141101027E-003
 0.385058063551236E-003
 0.387631681539107E-003
 0.398664960797122E-003
 0.389410637229037E-003
 0.385041557145194E-003
 0.382511482561537E-003
 0.381466689642032E-003
 0.383243872830227E-003
 0.364110739466794E-003
 0.309004882037042E-003
 0.361194237364843E-003
 0.335265828172093E-003
 0.682493350964978E-002
 0.259631921667975E-002
 0.137592190321305E-002
 0.275641237762134E-002
 0.145138524811095E-001
 0.376544834213024E-002
 0.186411745302937E-001
 0.655998881172093E-002
 0.221542363667056E-001
 0.398959018246182E-001
 0.734247438537704E-001
 0.737169127471091E-001
 0.276034029297076E-002
 0.871207790419881E-003
 0.380963960538978E-003
 0.100705143393396E-002
 0.113870741984745E+000
 0.536639809050203E-001
 0.797066754244937E-001
 0.498501275916589E-001
 0.344878914214196E-001
 0.273361302282527E-001
 0.427616514922989E-001
 0.413425775466737E-001
 0.112994533379870E-002
 0.117769007192630E-002
 0.850455194913097E-002
 0.444582384587558E-002
 0.407282922692748E-003
 0.388062439131002E-003
 0.378856282001150E-003
 0.388926714772848E-003
 0.348216573560702E-002
 0.241415165164767E-002
 0.287368748263633E-002
 0.295741014801810E-002
 0.378630697565047E-003
 0.381906982892086E-003
 0.375725727734232E-003
 0.377451002358011E-003
 0.392224301839768E-003
 0.389816124194252E-003
 0.376292120294838E-003
 0.381319209518517E-003
 0.130767313290184E-002
 0.115164690963983E-002
 0.588939704405953E-002
 0.340258047460144E-002
 0.117134963018405E-002
 0.986545330939347E-003
 0.561381808085277E-002
 0.110338335157394E-002
 0.560681339268016E-002
 0.173742710066793E-001
 0.311814192381380E-002
 0.106309220928352E-001
 0.150769181345980E-001
 0.111572432574079E-001
 0.161432673730511E-001
 0.117622671876778E-001
 0.102880898936758E-001
 0.386940962957019E-002
 0.298777659814840E-002
 0.412504776769854E-002
 0.132062089145704E-001
 0.371101107381545E-002
 0.587645000102530E-002
 0.839991300363658E-002
 0.118451862674974E+000
 0.582643770835801E-001
 0.149122455628289E+000
 0.154671640036171E+000
 0.382575996978798E-003
 0.366717567431761E-003
 0.371270064939169E-003
 0.375147172590798E-003
 0.656515444790742E-001
 0.635449692589889E-001
 0.184684823407360E+000
 0.590180604095262E-001
 0.111175379689458E-002
 0.135288901799020E-002
 0.643396081592076E-003
 0.957192524441465E-003
 0.794924489006972E-003
 0.749317272640982E-003
 0.869759303605461E-003
 0.795289266492204E-003
 0.162827304594764E-002
 0.192910835224071E-002
 0.246325325667257E-002
 0.200656101227777E-002
 0.434070769927787E-001
 0.478413403150639E-001
 0.237379519654581E-001
 0.444382418658940E-001
 0.159565002785199E-002
 0.150200301240779E-002
 0.195498526218210E-002
 0.163217100748783E-002
 0.251245552430918E-001
 0.495130384640256E-001
 0.463243853088696E-001
 0.435659716657436E-001
 0.257191199721633E-001
 0.326941247056744E-001
 0.187525446384900E-001
 0.282460414970505E-001
 0.888874441608266E-002
 0.168432841921532E-001
 0.775287843251319E-002
 0.940366755718070E-002
 0.844061790500339E-002
 0.137355095005318E-001
 0.974651220038776E-002
 0.103722409954004E-001
 0.396871802385913E-002
 0.109014705080725E-001
 0.105496524507834E-001
 0.107300336495149E-001
 0.109659603306646E-002
 0.151127722765867E-002
 0.180725275450505E-002
 0.137725216324754E-002
 0.430815007594176E-003
 0.403661284487382E-003
 0.448900909988749E-003
 0.421381688441800E-003
 0.231675898022303E-001
 0.112557774448037E-001
 0.809800575221101E-002
 0.895367801830255E-002
 0.203334743331502E-001
 0.157023102258057E-001
 0.215230821499101E-001
 0.203617256742928E-001
 0.162557501016689E-001
 0.166648027866142E-001
 0.140711495667503E-001
 0.183095917007687E-001
 0.514605785004079E-002
 0.210555996250470E-002
 0.258280103171071E-002
 0.284224421056160E-002
 0.850673867027082E-002
 0.589127185198548E-002
 0.210676849280731E-001
 0.760164245728744E-002
 0.120397339920302E+000
 0.153468999056311E+000
 0.295383771501143E+000
 0.178237862452149E+000
 0.101701690919485E-001
 0.217492835400959E-001
 0.261593836803639E-001
 0.244276684263530E-001
 0.211375197976791E-001
 0.465351462862361E-001
 0.346868784047553E-001
 0.335481154368411E-001
 0.776293191945787E-002
 0.116457149868026E-002
 0.567573590730831E-002
 0.488498764582831E-002
 0.509218103128092E-003
 0.429900991162392E-003
 0.646108570193129E-003
 0.505843171825289E-003
 0.391251859006789E-003
 0.370431045768433E-003
 0.417314930467919E-003
 0.390301171292936E-003
 0.658837814576640E-001
 0.586351019817955E-001
 0.729962343276254E-001
 0.683884265567668E-001
 0.180975096036418E-001
 0.104605277567365E-001
 0.202657838004304E-001
 0.197616129413137E-001
 0.968105062102377E-002
 0.124063121882661E-001
 0.136100580875737E-001
 0.111221315080352E-001
 0.394306814714239E-002
 0.101194992664388E-001
 0.158365322292218E-001
 0.110454972976327E-001
 0.963797832218470E-002
 0.408804365455285E-002
 0.250495991069611E-002
 0.459588118616665E-002
 0.278234695005235E-002
 0.286282683771459E-002
 0.917948259374210E-002
 0.312099062151869E-002
 0.157450634474326E-001
 0.505536892102147E-002
 0.175587400968605E-001
 0.203279454082621E-001
 0.101630458139696E-001
 0.176650636245939E-001
 0.197233056034014E-001
 0.226865505628090E-001
 0.636825764476771E-003
 0.113315389081522E-002
 0.170221284595656E-002
 0.104720087656004E-002
 0.549101740820878E-001
 0.511523010286424E-001
 0.540874264108883E-001
 0.582781519231227E-001
 0.446660264770082E-002
 0.820221188540803E-002
 0.673670283849183E-002
 0.624498177701167E-002
 0.196817238692986E-001
 0.224076088644677E-001
 0.292770596957362E-001
 0.245600007549209E-001
 0.503502899867043E-002
 0.104620085971308E+000
 0.170568167154514E-001
 0.606556509360516E-002
 0.158186439163874E-002
 0.111964035893256E-002
 0.128187581367100E-002
 0.132059278349646E-002
 0.719235736862550E-002
 0.564791446691101E-002
 0.654685804007911E-002
 0.575308147328949E-002
 0.280443855266570E-001
 0.353924948776705E-001
 0.358982717138738E-001
 0.308373657914869E-001
 0.861244107256002E-001
 0.128554807521920E+000
 0.443933443434695E+000
 0.125768112510221E+000
 0.184231435356784E-001
 0.845879996406519E-002
 0.471480408600054E-002
 0.719679795340253E-002
 0.171138138245422E-002
 0.152618559097684E-002
 0.605128207944008E-003
 0.101474700348814E-002
 0.850592898531092E-001
 0.691627532200217E-001
 0.261250744499129E-001
 0.543469352013782E-001
 0.348734278562561E-003
 0.367561307233997E-003
 0.371689788629535E-003
 0.360240669528475E-003
 0.390434498310673E-003
 0.424251303402694E-003
 0.379825986722812E-003
 0.396373656235799E-003
 0.810448921889105E-002
 0.173129541300193E-001
 0.191608295225681E-001
 0.184877698508987E-001
 0.396165925596725E-003
 0.387542207774109E-003
 0.384877784421586E-003
 0.389410345960243E-003
 0.845123121505522E-002
 0.138146268991853E-001
 0.780257832300048E-002
 0.100817527226853E-001
 0.110626674296085E-001
 0.158756200000860E-001
 0.162717146701783E-001
 0.157353082185506E-001
 0.320154350727057E-001
 0.265716050938855E-001
 0.214688286765335E-001
 0.298516641543503E-001
 0.591209405884766E-003
 0.957451882716309E-003
 0.363687928965928E-002
 0.209862883845187E-002
 0.301731354931713E-002
 0.533829129637502E-002
 0.423478261210855E-002
 0.400377424535785E-002
 0.845469965825984E-002
 0.535760124714229E-002
 0.786125495592761E-002
 0.727526116566411E-002
 0.492776808282914E-002
 0.652654636588178E-002
 0.826052119256633E-002
 0.664149815927066E-002
 0.132271007277444E-001
 0.172186518838765E-001
 0.182431352306058E-001
 0.158282452277265E-001
 0.196853638495113E-002
 0.197055034895480E-002
 0.245012281491439E-002
 0.204844651287101E-002
 0.143887419334687E-002
 0.140744421893875E-002
 0.188910353992882E-002
 0.151240044454989E-002
 0.186510975726781E-001
 0.862286763903746E-002
 0.392715891553900E-002
 0.592130405959118E-002
 0.308484408422944E-001
 0.149686533510762E-001
 0.170872902652617E-001
 0.179891320660918E-001
 0.498651018939203E-002
 0.103289557504035E-001
 0.906436719961845E-002
 0.797020696098603E-002
 0.105347202396589E-001
 0.207423371777250E-001
 0.170686216461451E-001
 0.200976978474267E-001
 0.489019851969361E-001
 0.508519334913325E-001
 0.337863974564900E-001
 0.371208123029164E-001
 0.724365954935835E-001
 0.841941736709802E-001
 0.594439194666991E-001
 0.673002053000669E-001
 0.100270811951034E-001
 0.126058036020299E-001
 0.205995367737291E-001
 0.128880546923825E-001
 0.265323874117314E-001
 0.153971099329739E-001
 0.325908530685630E-001
 0.266531544724012E-001
 0.966567589332629E-003
 0.925942234750001E-003
 0.111085182877505E-002
 0.986146723159529E-003
 0.145987797570698E-002
 0.182464330277416E-002
 0.137974667849899E-002
 0.152459899913849E-002
 0.348434050109434E-001
 0.578249203196012E-001
 0.100823848518281E-001
 0.390871680864157E-001
 0.108038072479937E-002
 0.159275037250642E-002
 0.107735787978684E-002
 0.120581877205592E-002
 0.118966418388626E-001
 0.138620022845713E-002
 0.141592112845422E-002
 0.459973377051971E-002
 0.368245946789455E-003
 0.297332697446193E-003
 0.433563378661010E-003
 0.347688452513742E-003
 0.104041369642048E-002
 0.121575156827014E-002
 0.105193488034578E-002
 0.109258233298794E-002
 0.165392602545229E-002
 0.142209029066084E-002
 0.128608661795733E-002
 0.142317598669845E-002
 0.547961239155284E-002
 0.308201964809168E-002
 0.559583300601721E-002
 0.465704431945523E-002
 0.300603172743457E-002
 0.138557845103785E-002
 0.112907275008252E-002
 0.142142887982355E-002
 0.418329577357182E-002
 0.280733731196087E-002
 0.514453460046553E-002
 0.366777416610037E-002
 0.451159470850858E-002
 0.250815449228925E-002
 0.257881005427878E-002
 0.287762700790475E-002
 0.430761402420503E-003
 0.432096685760046E-003
 0.510234819950665E-003
 0.448564812941076E-003
 0.538107268526396E-002
 0.344853601359608E-002
 0.472971599376033E-002
 0.472686572901770E-002
 0.195617986443644E-002
 0.189654009522234E-002
 0.145216176254485E-002
 0.175063280180985E-002
 0.889734715260642E-003
 0.115568588888572E-002
 0.109321941148180E-002
 0.103787573748070E-002
 0.126013766781997E-001
 0.865796154393945E-002
 0.110327506852373E-001
 0.111925180280082E-001
 0.970156820414832E-003
 0.123409081907927E-002
 0.118110024707134E-002
 0.111918473889534E-002
 0.840446644941560E-002
 0.543654010330146E-002
 0.761248040104984E-002
 0.765939187561991E-002
 0.114116405684030E-002
 0.101562689307509E-002
 0.978741367653644E-003
 0.104452293435773E-002
 0.141875824917984E-001
 0.118590703670990E-001
 0.143876582248138E-001
 0.146752301420339E-001
 0.237927499968922E-002
 0.316095088538077E-002
 0.208688431414044E-002
 0.242644600573144E-002
 0.144376615577418E-001
 0.889931604143674E-002
 0.136423083391273E-001
 0.135870666622871E-001
 0.192064994499172E-001
 0.207350543751804E-001
 0.240495467585498E-001
 0.208973879851226E-001
 0.854797485901929E-002
 0.125955535951896E-001
 0.110229574124218E-001
 0.110975970716788E-001
 0.286150279464401E-002
 0.461945136752138E-002
 0.209098823540023E-002
 0.270523096184389E-002
 0.158945630067354E-001
 0.162157294607566E-001
 0.182687222189161E-001
 0.166273122968306E-001
 0.314490406149407E-002
 0.271257795946437E-002
 0.214228754336339E-002
 0.268451215982294E-002
 0.638031060567121E-002
 0.888445214353419E-002
 0.971056731492269E-002
 0.868696973104712E-002
 0.434209185474046E-003
 0.507280486295072E-003
 0.677919915078466E-003
 0.531686677117442E-003
 0.130204236036905E-002
 0.137731253779972E-002
 0.156526233475465E-002
 0.143909917406289E-002
 0.301125295082491E-003
 0.276182820192893E-003
 0.297117864431335E-003
 0.291458004390286E-003
 0.797966203057139E-002
 0.557972826622815E-002
 0.512407745885846E-002
 0.576563797534219E-002
 0.774282495708869E-003
 0.493407745070785E-003
 0.576193619114316E-003
 0.600292860207340E-003
 0.643204140805448E-002
 0.515750350664584E-002
 0.867713918220226E-002
 0.597576516153249E-002
 0.143936355683757E-002
 0.153923638148072E-002
 0.181564684849704E-002
 0.157577888929993E-002
 0.287335433575959E-003
 0.299235340034065E-003
 0.345262297973038E-003
 0.311272645016541E-003
 0.443586959005127E-002
 0.512981327746611E-002
 0.915870796982702E-002
 0.573076915645539E-002
 0.399840552230751E-002
 0.449331647383985E-002
 0.326746500204361E-002
 0.377862853691435E-002
 0.946243242233867E-002
 0.106362397679450E-001
 0.703787499969088E-002
 0.103706367309372E-001
 0.176941005671682E-002
 0.161037031632065E-002
 0.172092246708039E-002
 0.166858291932435E-002
 0.739835226085675E-003
 0.806814048777140E-003
 0.879102811009344E-003
 0.808469184581098E-003
 0.362359238271739E-002
 0.990322366583832E-003
 0.126777501898113E-002
 0.135508548853886E-002
 0.137207639746200E-002
 0.159402480466900E-002
 0.152176026889180E-002
 0.147289420188564E-002
 0.381570005440371E-002
 0.587138142808377E-002
 0.691159141096836E-002
 0.547046064160898E-002
 0.569292944398108E-003
 0.685269512179908E-003
 0.586885028665052E-003
 0.616201270033537E-003
 0.173308493836709E-002
 0.162841349547939E-002
 0.175418425667188E-002
 0.170854109370367E-002
 0.106133329789022E-002
 0.125337414672762E-002
 0.122799740981408E-002
 0.115353716482826E-002
 0.151545034985287E-002
 0.223257089761617E-002
 0.206397090412628E-002
 0.197863417916963E-002
 0.437158187748686E-002
 0.363552753129971E-002
 0.644200444102992E-002
 0.460645989722631E-002
 0.166500264828438E-002
 0.221263800329355E-002
 0.144046236180112E-002
 0.169621487694771E-002
 0.152146025912816E-002
 0.195373745800461E-002
 0.178638926015608E-002
 0.173314766584761E-002
 0.295834087585286E-002
 0.352273292149933E-002
 0.257798801461458E-002
 0.292910788866948E-002
 0.384788589234920E-002
 0.106315237843036E-001
 0.640413732767389E-002
 0.742847660020918E-002
 0.169333124524867E-001
 0.191455248846162E-001
 0.878823607979504E-002
 0.184446047413606E-001
 0.111898121062411E-002
 0.121007473254073E-002
 0.956404331470374E-003
 0.110017067353215E-002
 0.179032441663879E-002
 0.148168626947397E-002
 0.187998232399753E-002
 0.172016489241878E-002
 0.840126425472599E-003
 0.102586661267032E-002
 0.887368920107593E-003
 0.904657349044573E-003
 0.135873299921806E-002
 0.161988423904840E-002
 0.126800992985683E-002
 0.140095190798964E-002
 0.511911945568254E-003
 0.557547085614248E-003
 0.552300530253239E-003
 0.533525041069285E-003
 0.698350628701641E-003
 0.693562776423821E-003
 0.782356856244560E-003
 0.725496110748509E-003
 0.448627748678919E+000
 0.356916851441682E+000
 0.550309456523665E-001
 0.430125173981556E+000
 0.206720495776016E-001
 0.648002166416385E-001
 0.624429623381618E-001
 0.621599156507196E-001
 0.317631764543728E-002
 0.233861240135076E-002
 0.360879017328815E-002
 0.297655226923140E-002
 0.337772401783742E-002
 0.221558934455646E-002
 0.232102662363485E-002
 0.247383784631516E-002
 0.237106305154613E-002
 0.215008757020172E-002
 0.287445249356578E-002
 0.236157649428885E-002
 0.212678079849774E-001
 0.199273664722234E-001
 0.154700186097071E-001
 0.176612674613269E-001
 0.673556793352261E-002
 0.212904402648461E-002
 0.204674334110687E-002
 0.228958932178557E-002
 0.550528813305415E-003
 0.533387363243685E-003
 0.464916014207173E-003
 0.512242425418463E-003
 0.150533106725828E-001
 0.298359003774723E-001
 0.153590090837168E-001
 0.244592382179299E-001
 0.384116711088729E-003
 0.402962322485161E-003
 0.306005706007465E-003
 0.346498358653453E-003
 0.536077491113542E-003
 0.913646555671011E-003
 0.101346219091361E-002
 0.777497589399736E-003
 0.660237679544972E-003
 0.859630607326886E-003
 0.901205664055168E-003
 0.794770432739392E-003
 0.740919007590574E-002
 0.179872992034429E-002
 0.517780586229542E-002
 0.578103772640287E-002
 0.264070104311327E-003
 0.248140747794865E-003
 0.273595089571988E-003
 0.258797540938097E-003
 0.373952351999986E-003
 0.308711101719408E-003
 0.287696962476946E-003
 0.322798276537245E-003
 0.641680148224442E-003
 0.761334197478556E-003
 0.789287863953330E-003
 0.721267664328765E-003
 0.323660274182379E-003
 0.387458250565543E-003
 0.375999359736132E-003
 0.355819173230437E-003
 0.526281030636491E-003
 0.463534518677321E-003
 0.917551094347411E-003
 0.581635048364116E-003
 0.638454942332414E-003
 0.695839103505582E-003
 0.734866773957718E-003
 0.684135809049478E-003
 0.242261110092938E-003
 0.244618040761621E-003
 0.252525062196418E-003
 0.245318901053847E-003
 0.838347740292246E-003
 0.748087375324566E-003
 0.777920729003550E-003
 0.791935386095485E-003
 0.559575978935966E-003
 0.187698283028225E-002
 0.308488647818821E-002
 0.130061946996601E-002
 0.637416283948330E-003
 0.127172213762668E-002