# vtk DataFile Version 3.0
Unstructured Grid
ASCII
DATASET UNSTRUCTURED_GRID
FIELD FieldData 1
TIME 1 1 float
  0.121875E+02
POINTS         1241 double
 0.000000000000000E+000 0.000000000000000E+000 0.000000000000000E+000
 0.100000000000000E+001 0.000000000000000E+000 0.000000000000000E+000
 0.100000000000000E+001 0.100000000000000E+001 0.000000000000000E+000
 0.000000000000000E+000 0.100000000000000E+001 0.000000000000000E+000
 0.125000000000000E+000 0.250000000000000E+000 0.000000000000000E+000
 0.375000000000000E+000 0.250000000000000E+000 0.000000000000000E+000
 0.375000000000000E+000 0.750000000000000E+000 0.000000000000000E+000
 0.125000000000000E+000 0.750000000000000E+000 0.000000000000000E+000
 0.625000000000000E+000 0.250000000000000E+000 0.000000000000000E+000
 0.875000000000000E+000 0.250000000000000E+000 0.000000000000000E+000
 0.875000000000000E+000 0.750000000000000E+000 0.000000000000000E+000
 0.625000000000000E+000 0.750000000000000E+000 0.000000000000000E+000
 0.100000000000000E+001 0.500000000000000E+000 0.000000000000000E+000
 0.000000000000000E+000 0.500000000000000E+000 0.000000000000000E+000
 0.500000000000000E+000 0.000000000000000E+000 0.000000000000000E+000
 0.125000000000000E+000 0.500000000000000E+000 0.000000000000000E+000
 0.000000000000000E+000 0.750000000000000E+000 0.000000000000000E+000
 0.000000000000000E+000 0.250000000000000E+000 0.000000000000000E+000
 0.000000000000000E+000 0.875000000000000E+000 0.000000000000000E+000
 0.308529810216860E+000 0.500255759132561E+000 0.000000000000000E+000
 0.250000000000000E+000 0.000000000000000E+000 0.000000000000000E+000
 0.125000000000000E+000 0.375000000000000E+000 0.000000000000000E+000
 0.125000000000000E+000 0.625000000000000E+000 0.000000000000000E+000
 0.000000000000000E+000 0.375000000000000E+000 0.000000000000000E+000
 0.000000000000000E+000 0.437500000000000E+000 0.000000000000000E+000
 0.625000000000000E-001 0.406250000000000E+000 0.000000000000000E+000
 0.125000000000000E+000 0.437500000000000E+000 0.000000000000000E+000
 0.216796875000000E+000 0.382812500000000E+000 0.000000000000000E+000
 0.183593750000000E+000 0.468750000000000E+000 0.000000000000000E+000
 0.375000000000000E+000 0.500000000000000E+000 0.000000000000000E+000
 0.250000000000000E+000 0.468750000000000E+000 0.000000000000000E+000
 0.625000000000000E-001 0.481770833333333E+000 0.000000000000000E+000
 0.184176834650379E+000 0.540399924344460E+000 0.000000000000000E+000
 0.216796875000000E+000 0.432195490056818E+000 0.000000000000000E+000
 0.168571309840426E+000 0.406250000000000E+000 0.000000000000000E+000
 0.125000000000000E+000 0.687500000000000E+000 0.000000000000000E+000
 0.255828208111702E+000 0.540763692652926E+000 0.000000000000000E+000
 0.375000000000000E+000 0.375000000000000E+000 0.000000000000000E+000
 0.375000000000000E+000 0.625000000000000E+000 0.000000000000000E+000
 0.220170948184400E+000 0.507406813570504E+000 0.000000000000000E+000
 0.219557967718869E+000 0.628145457476636E+000 0.000000000000000E+000
 0.125000000000000E+000 0.562500000000000E+000 0.000000000000000E+000
 0.000000000000000E+000 0.625000000000000E+000 0.000000000000000E+000
 0.375000000000000E+000 0.437500000000000E+000 0.000000000000000E+000
 0.280323303380492E+000 0.407503995028409E+000 0.000000000000000E+000
 0.375000000000000E+000 0.562500000000000E+000 0.000000000000000E+000
 0.219817452482738E+000 0.577034793653623E+000 0.000000000000000E+000
 0.885901781235304E-001 0.531250000000000E+000 0.000000000000000E+000
 0.312500000000000E+000 0.250000000000000E+000 0.000000000000000E+000
 0.297268942273640E+000 0.626076494243052E+000 0.000000000000000E+000
 0.168732375746058E+000 0.593750000000000E+000 0.000000000000000E+000
 0.173890458776596E+000 0.343750000000000E+000 0.000000000000000E+000
 0.183963193611824E+000 0.278873942859495E+000 0.000000000000000E+000
 0.250000000000000E+000 0.250000000000000E+000 0.000000000000000E+000
 0.237162500098357E+000 0.317347265649589E+000 0.000000000000000E+000
 0.250000000000000E+000 0.750000000000000E+000 0.000000000000000E+000
 0.292902283271084E+000 0.575476271929907E+000 0.000000000000000E+000
 0.125000000000000E+000 0.312500000000000E+000 0.000000000000000E+000
 0.585937500000000E-001 0.335937500000000E+000 0.000000000000000E+000
 0.000000000000000E+000 0.312500000000000E+000 0.000000000000000E+000
 0.336992576921227E+000 0.687500000000000E+000 0.000000000000000E+000
 0.312500000000000E+000 0.750000000000000E+000 0.000000000000000E+000
 0.270599706447422E+000 0.686880677247748E+000 0.000000000000000E+000
 0.500000000000000E+000 0.100000000000000E+001 0.000000000000000E+000
 0.250000000000000E+000 0.100000000000000E+001 0.000000000000000E+000
 0.375000000000000E+000 0.100000000000000E+001 0.000000000000000E+000
 0.281250000000000E+000 0.830729166666667E+000 0.000000000000000E+000
 0.343750000000000E+000 0.312500000000000E+000 0.000000000000000E+000
 0.318389033445014E+000 0.364242983277493E+000 0.000000000000000E+000
 0.267787317245899E+000 0.358095790057897E+000 0.000000000000000E+000
 0.289796410792034E+000 0.300414294603983E+000 0.000000000000000E+000
 0.274503756719177E+000 0.737152390322435E-001 0.000000000000000E+000
 0.343750000000000E+000 0.183159722222222E+000 0.000000000000000E+000
 0.246744791666667E+000 0.146267361111111E+000 0.000000000000000E+000
 0.485980902777778E+000 0.146267361111111E+000 0.000000000000000E+000
 0.302262721771688E+000 0.146267361111111E+000 0.000000000000000E+000
 0.274503756719177E+000 0.197313658770435E+000 0.000000000000000E+000
 0.375000000000000E+000 0.000000000000000E+000 0.000000000000000E+000
 0.420862160086615E+000 0.187832617434252E+000 0.000000000000000E+000
 0.384683294119816E+000 0.146267361111111E+000 0.000000000000000E+000
 0.330565923051619E+000 0.413335216176427E+000 0.000000000000000E+000
 0.352621063931298E+000 0.818811625318066E+000 0.000000000000000E+000
 0.312179705605879E+000 0.796288985503351E+000 0.000000000000000E+000
 0.500000000000000E+000 0.828697389616904E+000 0.000000000000000E+000
 0.427559261986282E+000 0.805138192500353E+000 0.000000000000000E+000
 0.399035374849065E+000 0.860999763838749E+000 0.000000000000000E+000
 0.312500000000000E+000 0.000000000000000E+000 0.000000000000000E+000
 0.187500000000000E+000 0.820606518817204E+000 0.000000000000000E+000
 0.466707069430364E+000 0.898575881689250E+000 0.000000000000000E+000
 0.511172798160702E+000 0.257526753061783E+000 0.000000000000000E+000
 0.453250172578119E+000 0.849294180402265E+000 0.000000000000000E+000
 0.937500000000000E-001 0.504496261452806E-001 0.000000000000000E+000
 0.403162177800535E+000 0.933291523780214E+000 0.000000000000000E+000
 0.437500000000000E+000 0.100000000000000E+001 0.000000000000000E+000
 0.312500000000000E+000 0.934315683855312E+000 0.000000000000000E+000
 0.453353205989905E+000 0.949647808263675E+000 0.000000000000000E+000
 0.358054120979715E+000 0.953547171775243E+000 0.000000000000000E+000
 0.325154404090345E+000 0.873991089312954E+000 0.000000000000000E+000
 0.367644435624882E+000 0.899055397729593E+000 0.000000000000000E+000
 0.236990017361111E+000 0.801449092741935E+000 0.000000000000000E+000
 0.443167922913219E+000 0.252288460541578E+000 0.000000000000000E+000
 0.477263196714215E+000 0.204401840413902E+000 0.000000000000000E+000
 0.562394794036017E+000 0.187447086349591E+000 0.000000000000000E+000
 0.625000000000000E+000 0.375000000000000E+000 0.000000000000000E+000
 0.407024191230044E+000 0.312500000000000E+000 0.000000000000000E+000
 0.474084945258901E+000 0.294963270028168E+000 0.000000000000000E+000
 0.216342369774119E+000 0.930487241414522E-001 0.000000000000000E+000
 0.157072243143605E+000 0.162201579117130E+000 0.000000000000000E+000
 0.187500000000000E+000 0.000000000000000E+000 0.000000000000000E+000
 0.174352819470591E+000 0.117036261141583E+000 0.000000000000000E+000
 0.125000000000000E+000 0.000000000000000E+000 0.000000000000000E+000
 0.218750000000000E+000 0.413079239859885E-001 0.000000000000000E+000
 0.131982343008202E+000 0.962324019836500E-001 0.000000000000000E+000
 0.866442243142230E-001 0.109366815743071E+000 0.000000000000000E+000
 0.000000000000000E+000 0.125000000000000E+000 0.000000000000000E+000
 0.156250000000000E+000 0.557461246091935E-001 0.000000000000000E+000
 0.343473007945752E+000 0.889135573360382E-001 0.000000000000000E+000
 0.316206161479800E+000 0.485604570335434E-001 0.000000000000000E+000
 0.430629647389619E+000 0.697713778434944E-001 0.000000000000000E+000
 0.391175490408355E+000 0.981202752650288E-001 0.000000000000000E+000
 0.444501950008550E+000 0.736368377006958E+000 0.000000000000000E+000
 0.398829470438439E+000 0.687500000000000E+000 0.000000000000000E+000
 0.513688817046671E+000 0.757625009132424E+000 0.000000000000000E+000
 0.625000000000000E+000 0.500000000000000E+000 0.000000000000000E+000
 0.473588841595499E+000 0.786756047776317E+000 0.000000000000000E+000
 0.478860669310979E+000 0.411527234375853E+000 0.000000000000000E+000
 0.572911532233985E+000 0.805885984489640E+000 0.000000000000000E+000
 0.447298813474571E+000 0.682006891579307E+000 0.000000000000000E+000
 0.504019394669429E+000 0.534902916754864E+000 0.000000000000000E+000
 0.486274863958833E+000 0.352843653662708E+000 0.000000000000000E+000
 0.551332894747653E+000 0.390873360445252E+000 0.000000000000000E+000
 0.433027718644055E+000 0.375926460599989E+000 0.000000000000000E+000
 0.437992666628316E+000 0.468750000000000E+000 0.000000000000000E+000
 0.421394775819071E+000 0.423093236096220E+000 0.000000000000000E+000
 0.501785840486804E+000 0.471105361968983E+000 0.000000000000000E+000
 0.433650269193003E+000 0.539110962574808E+000 0.000000000000000E+000
 0.559767288621728E+000 0.501013305633588E+000 0.000000000000000E+000
 0.473047166828055E+000 0.607447789310414E+000 0.000000000000000E+000
 0.551301338206151E+000 0.446268697831009E+000 0.000000000000000E+000
 0.625000000000000E+000 0.625000000000000E+000 0.000000000000000E+000
[...]
CELL_DATA         2368
SCALARS tdens double 1
LOOKUP_TABLE default
 0.555038439906693E-001
 0.563045093504928E-001
 0.539503745214080E-001
 0.549559182960487E-001
 0.512072026063396E-001
 0.517831275178983E-001
 0.515919376987631E-001
 0.515731003644844E-001
 0.584502247862850E-001
 0.627813770871919E-001
 0.624998763071023E-001
 0.611963599744468E-001
 0.586219225176124E-001
 0.585250560202278E-001
 0.599172622298255E-001
 0.591355389803782E-001
 0.606295267830495E-001
 0.601999903080045E-001
 0.608728370652733E-001
 0.605195747181442E-001
 0.468512089409646E-001
 0.466475336801972E-001
 0.466728207020287E-001
 0.467253827349431E-001
 0.495202189142998E-001
 0.498639372962418E-001
 0.482302740425533E-001
 0.489541690156731E-001
 0.613713498824595E-001
 0.606176802968036E-001
 0.610923777775675E-001
 0.609889674300423E-001
 0.653333095596306E-001
 0.666783010839571E-001
 0.669971079030761E-001
 0.664420174807899E-001
 0.539548070876692E-001
 0.534121364385764E-001
 0.543843520106151E-001
 0.538900197708477E-001
 0.519383689793924E-001
 0.521442705970168E-001
 0.524504611704811E-001
 0.521129027803929E-001
 0.555180498566136E-001
 0.553234507293750E-001
 0.545874415196639E-001
 0.551861503896743E-001
 0.610861364856306E-001
 0.690205272290841E-001
 0.564267230759952E-001
 0.607765387943761E-001
 0.612270155774300E-001
 0.621709666847904E-001
 0.629118230172856E-001
 0.622939526105464E-001
 0.465784329189378E-001
 0.464464314059705E-001
 0.465665339751424E-001
 0.465042104175046E-001
 0.560235701460559E-001
 0.572383296299877E-001
 0.559258002920972E-001
 0.564025268147430E-001
 0.610594155143774E-001
 0.597894072290402E-001
 0.616762575118743E-001
 0.605483679855329E-001
 0.479380727047994E-001
 0.482556516063090E-001
 0.480080741162803E-001
 0.480166307345028E-001
 0.482226157142105E-001
 0.476290849024177E-001
 0.480474249315888E-001
 0.478771104866772E-001
 0.613064691102470E-001
 0.620170157615047E-001
 0.617392806540513E-001
 0.617645367377742E-001
 0.582248825435823E-001
 0.600556101790614E-001
 0.588145746780786E-001
 0.589962848369312E-001
 0.510513138023137E-001
 0.498021589622889E-001
 0.499949393656001E-001
 0.502038320132254E-001
 0.565172485843699E-001
 0.534126453091682E-001
 0.511893656896381E-001
 0.536090114535258E-001
 0.484046835992119E-001
 0.483046157597931E-001
 0.485101251019041E-001
 0.484038842204777E-001
 0.609000232218913E-001
 0.607600099602299E-001
 0.616460852463457E-001
 0.611396883953144E-001
 0.607028258992530E-001
 0.618781039820440E-001
 0.618527267843937E-001
 0.615589030041435E-001
 0.484480648660737E-001
 0.484404191171393E-001
 0.485494663013374E-001
 0.484879527609439E-001
 0.486327425920080E-001
 0.487103125920545E-001
 0.490188112293524E-001
 0.487706526774530E-001
 0.485854987257680E-001
 0.490672113762226E-001
 0.488581347115804E-001
 0.489003087893387E-001
 0.560016825075969E-001
 0.560578428441348E-001
 0.569598931256739E-001
 0.563410899131334E-001
 0.575902752745624E-001
 0.572061327228265E-001
 0.579714178469860E-001
 0.576130526706775E-001
 0.482047277791300E-001
 0.475061410644898E-001
 0.476816390808944E-001
 0.478036384706726E-001
 0.475602470528633E-001
 0.479835988245676E-001
 0.477607502423053E-001
 0.477750026299247E-001
 0.599637497245603E-001
 0.588767490632115E-001
 0.594801933846221E-001
 0.593604809272718E-001
 0.490118691746947E-001
 0.483509635089961E-001
 0.481457442013736E-001
 0.485641351067947E-001
 0.473629912394272E-001
 0.475235841541120E-001
 0.482972353763220E-001
 0.476679175926953E-001
 0.473736970210249E-001
 0.474018021804541E-001
 0.473700179144586E-001
 0.473873536576739E-001
 0.474704141053622E-001
 0.474970458689206E-001
 0.476390544402932E-001
 0.475270499921026E-001
 0.471895783577130E-001
 0.466614069571983E-001
 0.471807293839158E-001
 0.470062905018956E-001
 0.511439314696852E-001
 0.498595073297451E-001
 0.484688920454548E-001
 0.495614529524007E-001
 0.535286157492451E-001
 0.493791777580492E-001
 0.519512506333005E-001
 0.513558998033737E-001
 0.569098443060696E-001
 0.598210728178778E-001
 0.625950110601883E-001
 0.605683376956765E-001
 0.482370640258150E-001
 0.468104969306600E-001
 0.467679974627995E-001
 0.467760466009752E-001
 0.625697175352835E-001
 0.574014833413428E-001
 0.630586167283294E-001
 0.615671439323634E-001
 0.580354176328407E-001
 0.579839281936143E-001
 0.575708711878143E-001
 0.577835092795588E-001
 0.486187411555459E-001
 0.476138451015682E-001
 0.499831088868637E-001
 0.480540218730477E-001
 0.473739077256479E-001
 0.471072213674742E-001
 0.472843665182067E-001
 0.472261306768381E-001
 0.557435815669813E-001
 0.551539416316277E-001
 0.555371114640889E-001
 0.554119159508739E-001
 0.479006822319386E-001
 0.481705769331716E-001
 0.482086148838654E-001
 0.480905027969657E-001
 0.477521798165707E-001
 0.480595821381826E-001
 0.475104050718505E-001
 0.476668134023525E-001
 0.516067473579254E-001
 0.499026722082129E-001
 0.533230317910863E-001
 0.511960929379152E-001
 0.478369229112259E-001
 0.492879861128350E-001
 0.502415898142232E-001
 0.488330289891204E-001
 0.490178595505341E-001
 0.505136789877436E-001
 0.470921957418750E-001
 0.485060449969357E-001
 0.589861148644766E-001
 0.562884061092706E-001
 0.578829679896873E-001
 0.577707300640660E-001
 0.527010548862489E-001
 0.510892957799313E-001
 0.505244992644321E-001
 0.519569402894989E-001
 0.572858713197286E-001
 0.516776259897668E-001
 0.547456258054985E-001
 0.548226564991135E-001
 0.643429506221226E-001
 0.633159802162669E-001
 0.630679578176246E-001
 0.634253589915084E-001
 0.484741222685689E-001
 0.487634467968981E-001
 0.484703641484236E-001
 0.485336425631131E-001
 0.619745521998361E-001
 0.610833427279772E-001
 0.622449825169521E-001
 0.619416091956132E-001
 0.524875259168282E-001
 0.535813824011407E-001
 0.508613361989575E-001
 0.522892586371697E-001
 0.527342088884200E-001
 0.526382833557419E-001
 0.530438037653809E-001
 0.528166264639028E-001
 0.545141687148685E-001
 0.547733570208486E-001
 0.554016577409354E-001
 0.548504118192834E-001
 0.602391909634653E-001
 0.603537999089808E-001
 0.598897146208646E-001
 0.601399719703694E-001
 0.545706278114013E-001
 0.545429292096528E-001
 0.551532540533422E-001
 0.548515023658314E-001
 0.633138922249198E-001
 0.640995489227238E-001
 0.627987546002683E-001
 0.636495295702001E-001
 0.552580193120716E-001
 0.605023883212899E-001
 0.566896906444594E-001
 0.573825045735937E-001
 0.599954258867406E-001
 0.603355627502386E-001
 0.594049775735402E-001
 0.600097771464293E-001
 0.596096928041554E-001
 0.601528468002401E-001
 0.599838660309846E-001
 0.598950370247428E-001
 0.569925040321868E-001
 0.575943457689320E-001
 0.607684570599272E-001
 0.582662185566327E-001
 0.520733212260943E-001
 0.540529708727538E-001
 0.548624918590634E-001
 0.532828983765002E-001
 0.493107689474861E-001
 0.486576579593564E-001
 0.494073897878519E-001
 0.489865629495896E-001
 0.613118351136037E-001
 0.594004674161690E-001
 0.588920756377359E-001
 0.599813597822146E-001
 0.611789051693721E-001
 0.593109018502309E-001
 0.606227889630890E-001
 0.601876775184969E-001
 0.613708944442774E-001
 0.603893494233846E-001
 0.587610259339889E-001
 0.600870651494116E-001
 0.531822886671973E-001
 0.506462322507514E-001
 0.509139632667767E-001
 0.509651404704581E-001
 0.535327848833862E-001
 0.520566813823287E-001
 0.554004236726146E-001
 0.539236997424713E-001
 0.609224723697999E-001
 0.616405398457073E-001
 0.608218928864703E-001
 0.610491194961236E-001
 0.599044366783090E-001
 0.604304239014927E-001
 0.603285724331893E-001
 0.601820658609949E-001
 0.617948125583578E-001
 0.620067842438967E-001
 0.609662290940817E-001
 0.616579366500625E-001
 0.528059853587786E-001
 0.507845375253177E-001
 0.554520990776213E-001
 0.522872830167390E-001
 0.501641453600892E-001
 0.497411841054552E-001
 0.512319280073075E-001
 0.502194198524228E-001
 0.493497070300885E-001
 0.490059079741138E-001
 0.494026260740404E-001
 0.491818719080295E-001
 0.602700919642539E-001
 0.584697880256248E-001
 0.586288998931092E-001
 0.594652703580267E-001
 0.600601864163856E-001
 0.582606048301236E-001
 0.585055034117554E-001
 0.587676295808761E-001
 0.603578372815985E-001
 0.605066905832996E-001
 0.608104870196551E-001
 0.607197146376001E-001
 0.581316417124819E-001
 0.609073750074589E-001
 0.606090287590750E-001
 0.596020207593068E-001
 0.552490414752982E-001
 0.556579411942510E-001
 0.533241273339804E-001
 0.555848533994653E-001
 0.562300677317691E-001
 0.557695860173131E-001
 0.595936820677525E-001
 0.574707746257661E-001
 0.569422058129195E-001
 0.531790447070926E-001
 0.553449075890155E-001
 0.554648572380786E-001
 0.551780233002529E-001
 0.563624023339837E-001
 0.564606722696316E-001
 0.556511709378652E-001
 0.477826283507206E-001
 0.489820068270871E-001
 0.496724035296582E-001
 0.485656928440925E-001
 0.575700297773382E-001
 0.573295407821375E-001
 0.571255886772637E-001
 0.573306973850314E-001
 0.563384389037001E-001
 0.569799320917619E-001
 0.571922260214799E-001
 0.568115260621458E-001
 0.575554544338320E-001
 0.581194684960797E-001
 0.580454581175710E-001
 0.578445589454712E-001
 0.484059762753325E-001
 0.578054219571142E-001
 0.526216383779833E-001
 0.536218919959264E-001
 0.548781786513808E-001
 0.538580186345658E-001
 0.542196793758337E-001
 0.542089832009256E-001
 0.598188532698227E-001
 0.590344359817832E-001
 0.593416750250835E-001
 0.592868393108654E-001
 0.627897697585772E-001
 0.580489806713492E-001
 0.625975803156615E-001
 0.619677005571459E-001
 0.605168009632235E-001
 0.604117282518788E-001
 0.604175642371598E-001
 0.604596400274254E-001
 0.600841792270977E-001
 0.593258943874148E-001
 0.579456454432164E-001
 0.594041287969253E-001
 0.492906768928686E-001
 0.489533153501218E-001
 0.473283529687756E-001
 0.486119801002216E-001
 0.611239608105142E-001
 0.590612229605447E-001
 0.561297133158019E-001
 0.596388806723023E-001
 0.468562734122726E-001
 0.469771875118349E-001
 0.470835135222159E-001
 0.469334617492529E-001
 0.471052053597184E-001
 0.473572322917232E-001
 0.471357648963249E-001
 0.472137666589834E-001
 0.596488715101171E-001
 0.605522137216402E-001
 0.610127315541844E-001
 0.603628261029462E-001
 0.473389466721006E-001
 0.473626178772128E-001
 0.472590887880381E-001
 0.473182136472719E-001
 0.597686755677767E-001
 0.603850163194571E-001
 0.600600203234626E-001
 0.601150035967174E-001
 0.604489010051397E-001
 0.608889897538734E-001
 0.605813186159450E-001
 0.605879395011825E-001
 0.612983718899902E-001
 0.607252717058679E-001
 0.606884182917213E-001
 0.608611506813637E-001
 0.477105142677576E-001
 0.471914878999065E-001
 0.499642856190949E-001
 0.476394397192413E-001
 0.569142048513165E-001
 0.588088677079347E-001
 0.580233659022522E-001
 0.580236800396618E-001
 0.612032778451383E-001
 0.604554926732132E-001
 0.603543118023929E-001
 0.607049676398170E-001
 0.649781754892045E-001
 0.644566716821744E-001
 0.663323531711343E-001
 0.654145849568770E-001
 0.603501096286914E-001
 0.604016491555139E-001
 0.608347064930482E-001
 0.605852458720880E-001
 0.605136837954653E-001
 0.597643363888321E-001
 0.610476293273578E-001
 0.605265287834694E-001
 0.572545844384227E-001
 0.566128950396743E-001
 0.579092924369214E-001
 0.573730391180446E-001
 0.523624422297422E-001
 0.544389232538817E-001
 0.491438243394926E-001
 0.517055388743212E-001
 0.573174047083980E-001
 0.570611051066747E-001
 0.571632281436639E-001
 0.571642494137379E-001
 0.564913697083435E-001
 0.569885422892207E-001
 0.569342927100384E-001
 0.565524261369634E-001
 0.558199335936102E-001
 0.566231553385853E-001
 0.574483482674296E-001
 0.566851330954092E-001
 0.570556626738496E-001
 0.573839365058839E-001
 0.575574963519599E-001
 0.573622416993975E-001
 0.569217946544499E-001
 0.573888655313576E-001
 0.579088736665096E-001
 0.574162922994623E-001
 0.576507931210530E-001
 0.572680486711288E-001
 0.578203871494589E-001
 0.575933240688180E-001
 0.576196626286442E-001
 0.572447698356586E-001
 0.573152975107497E-001
 0.573462973145096E-001
 0.533156561564289E-001
 0.530170379033907E-001
 0.536692039091996E-001
 0.533482143511634E-001
 0.543342535000742E-001
 0.550274288907626E-001
 0.543100828770988E-001
 0.545038373767596E-001
 0.608503688842606E-001
 0.575943534976160E-001
 0.599985197556004E-001
 0.606915778134007E-001
 0.536121259464695E-001
 0.546291519853359E-001
 0.534169516222652E-001
 0.540072757471129E-001
 0.494166300080858E-001
 0.472669085988284E-001
 0.470351842429129E-001
 0.470058575438056E-001
 0.470818534907761E-001
 0.468354108564339E-001
 0.474135573202453E-001
 0.471348507497316E-001
 0.534797441926828E-001
 0.539488897521392E-001
 0.532857082121420E-001
 0.536379753055267E-001
 0.543355483414544E-001
 0.540704468746062E-001
 0.537459442056977E-001
 0.541088682227658E-001
 0.578136739892711E-001
 0.563163405063244E-001
 0.575018571568509E-001
 0.571327923384151E-001
 0.558781346447256E-001
 0.533845623645798E-001
 0.532185932474284E-001
 0.543791899571228E-001
 0.573602808396360E-001
 0.562412936816800E-001
 0.579569757311211E-001
 0.573486629484937E-001
 0.573915594977811E-001
 0.560506909386084E-001
 0.559463684287930E-001
 0.564371597873850E-001
 0.489517844902040E-001
 0.492153021028590E-001
 0.499460297585220E-001
 0.493079291592661E-001
 0.630756345502725E-001
 0.620361887076765E-001
 0.621684003532855E-001
 0.625803975490998E-001
 0.552644905573755E-001
 0.552494788517977E-001
 0.544787380061540E-001
 0.550310547454170E-001
 0.525831745436379E-001
 0.533856921058701E-001
 0.532750114978061E-001
 0.530533627829274E-001
 0.641818248322079E-001
 0.638026832226304E-001
 0.634608583971456E-001
 0.640574979021100E-001
 0.531212834389157E-001
 0.538385343204626E-001
 0.538019817326189E-001
 0.536118539122957E-001
 0.617771521072869E-001
 0.613365090221088E-001
 0.628579325890561E-001
 0.618247599177696E-001
 0.538014706170702E-001
 0.534909293418993E-001
 0.533759386853575E-001
 0.536351067614377E-001
 0.639595123860578E-001
 0.632877425574376E-001
 0.628276437328054E-001
 0.633299429192466E-001
 0.588784860191335E-001
 0.596971195084070E-001
 0.591212279978232E-001
 0.594129590884886E-001
 0.603427620558822E-001
 0.598237966340314E-001
 0.611513196634797E-001
 0.603108917508031E-001
 0.608343057659902E-001
 0.605816841616039E-001
 0.606482930769104E-001
 0.606690462233306E-001
 0.646222365464292E-001
 0.650165366395965E-001
 0.664678251859980E-001
 0.652057103609675E-001
 0.569769040074443E-001
 0.582962710569158E-001
 0.563489534869877E-001
 0.573203219394528E-001
 0.621021661152717E-001
 0.615465019393858E-001
 0.619414202387728E-001
 0.619112613060293E-001
 0.603137772341952E-001
 0.610662376161744E-001
 0.598001889080909E-001
 0.602537356192290E-001
 0.621090820912957E-001
 0.619797913687946E-001
 0.627018309951118E-001
 0.623893176523220E-001
 0.473650271131039E-001
 0.477683072611483E-001
 0.479445174624560E-001
 0.477275761532543E-001
 0.577595842846200E-001
 0.576444560484503E-001
 0.585324582628633E-001
 0.580907734516656E-001
 0.476960502703046E-001
 0.472283569029312E-001
 0.476523504946920E-001
 0.475352306558993E-001
 0.616046370895738E-001
 0.616655155348345E-001
 0.608258290642988E-001
 0.613137241071824E-001
 0.511834757407083E-001
 0.493567246213331E-001
 0.503278608775903E-001
 0.503821857349657E-001
 0.677174257415584E-001
 0.658411349439944E-001
 0.674703468753527E-001
 0.667642471764288E-001
 0.539686241342714E-001
 0.541856791727732E-001
 0.545158587286290E-001
 0.541762193495134E-001
 0.472583326950509E-001
 0.474747217422733E-001
 0.479588851968175E-001
 0.475973244826589E-001
 0.559981952520512E-001
 0.561166712418085E-001
 0.566694898792366E-001
 0.565038017058531E-001
 0.606944699421876E-001
 0.615854685790126E-001
 0.614369437439376E-001
 0.612972538006423E-001
 0.685927868656309E-001
 0.713475671052706E-001
 0.690745622308690E-001
 0.696195315263859E-001
 0.602960613765259E-001
 0.598941079774836E-001
 0.595177009010736E-001
 0.597835457165523E-001
 0.533751558269090E-001
 0.537776838110813E-001
 0.546431987848008E-001
 0.538621390954195E-001
 0.558646666109775E-001
 0.524923102901456E-001
 0.528127695551522E-001
 0.539703367263191E-001
 0.582793546950503E-001
 0.589582072430387E-001
 0.593717411875829E-001
 0.588479013902620E-001
 0.585733391500983E-001
 0.590919994300053E-001
 0.596622597470967E-001
 0.591053901898945E-001
 0.507344314379986E-001
 0.514812270154025E-001
 0.508391483724570E-001
 0.511108839836434E-001
 0.614028043226060E-001
 0.603648919194465E-001
 0.607266848013898E-001
 0.608166044074373E-001
 0.560452730600588E-001
 0.570311233313327E-001
 0.572280864234994E-001
 0.567768492641046E-001
 0.568454103141220E-001
 0.578421390148068E-001
 0.581350253235108E-001
 0.574723111769687E-001
 0.598783493281979E-001
 0.588570465971623E-001
 0.598482887961394E-001
 0.594932235410571E-001
 0.561484143550921E-001
 0.573139284496963E-001
 0.562000739442154E-001
 0.566488116554904E-001
 0.579123118560102E-001
 0.585136886879260E-001
 0.588354216405025E-001
 0.582999328671814E-001
 0.584942337962296E-001
 0.596085221261252E-001
 0.587508183717642E-001
 0.590029529201252E-001
 0.583471951418310E-001
 0.609103229745837E-001
 0.593476553992300E-001
 0.594062731448048E-001
 0.562766979962026E-001
 0.617086387348378E-001
 0.578338109762223E-001
 0.586999361963114E-001
 0.534813482331264E-001
 0.537929937580006E-001
 0.530682221888561E-001
 0.533656680650110E-001
 0.544996816106570E-001
 0.540254430546410E-001
 0.545786313626703E-001
 0.543754360613944E-001
 0.523857168754972E-001
 0.530712414957772E-001
 0.526879775905491E-001
 0.527662623923544E-001
 0.538120929952989E-001
 0.542932793022308E-001
 0.537059060177333E-001
 0.539174593594841E-001
 0.504563766904370E-001
 0.508092789404846E-001
 0.508296880403356E-001
 0.506322187051285E-001
 0.520191520989353E-001
 0.518725388071105E-001
 0.523652849396532E-001
 0.521290871196333E-001
 0.609248799905721E-001
 0.612560594397104E-001
 0.616619362001578E-001
 0.613484424244782E-001
 0.648739147167456E-001
 0.643404856072960E-001
 0.654700108886118E-001
 0.649025295351311E-001
 0.557176249467394E-001
 0.550773546900282E-001
 0.557767471391163E-001
 0.555164707036709E-001
 0.555759978270104E-001
 0.548913861507003E-001
 0.549595829664994E-001
 0.551800936036538E-001
 0.558179806174329E-001
 0.560285577585509E-001
 0.565104873702612E-001
 0.561898499425652E-001
 0.590985106865508E-001
 0.584793261573031E-001
 0.585113487920873E-001
 0.587572602405446E-001
 0.541065760625404E-001
 0.526215314738170E-001
 0.536567638002384E-001
 0.538555231537941E-001
 0.506532929742831E-001
 0.503222369455586E-001
 0.496604172403566E-001
 0.501949686306140E-001
 0.603281052041757E-001
 0.556881611820772E-001
 0.565049272823868E-001
 0.586750769133377E-001
 0.482804914386034E-001
 0.482232256169370E-001
 0.474486213759576E-001
 0.478124992670375E-001
 0.495554191763064E-001
 0.519077119484115E-001
 0.515045836493623E-001
 0.505484215830294E-001
 0.512348386795054E-001
 0.525230455221575E-001
 0.522828008816739E-001
 0.518272362649363E-001
 0.562767774710506E-001
 0.549374297276716E-001
 0.580660481161270E-001
 0.569396191105850E-001
 0.467666964699222E-001
 0.467097973926741E-001
 0.469440886480089E-001
 0.468258716056172E-001
 0.478540786745363E-001
 0.473045679168450E-001
 0.472129826872775E-001
 0.474995101103985E-001
 0.516114423347337E-001
 0.524710264339635E-001
 0.524430100450014E-001
 0.520623422442779E-001
 0.478298043542696E-001
 0.486805108895773E-001
 0.484047726209592E-001
 0.482379585233718E-001
 0.488231022655129E-001
 0.487855953885139E-001
 0.503364338078845E-001
 0.494471162931386E-001
 0.515805963199358E-001
 0.521529818450822E-001
 0.523254709082319E-001
 0.520842815244805E-001
 0.466291101650283E-001
 0.466578067133212E-001
 0.466912741021600E-001
 0.466570410752533E-001
 0.529578702815571E-001
 0.526454275146496E-001
 0.526925508659854E-001
 0.527872478581306E-001
 0.484713534251943E-001
 0.512189555630725E-001
 0.487328447793736E-001
 0.490476051074341E-001
 0.490206166567033E-001
 0.508368242369913E-001