# vtk DataFile Version 3.0
Unstructured Grid
ASCII
DATASET UNSTRUCTURED_GRID
FIELD FieldData 1
TIME 1 1 float
  0.255486E+02
POINTS         1241 double
 0.000000000000000E+000 0.000000000000000E+000 0.000000000000000E+000
 0.100000000000000E+001 0.000000000000000E+000 0.000000000000000E+000
 0.100000000000000E+001 0.100000000000000E+001 0.000000000000000E+000
 0.000000000000000E+000 0.100000000000000E+001 0.000000000000000E+000
 0.125000000000000E+000 0.250000000000000E+000 0.000000000000000E+000
 0.375000000000000E+000 0.250000000000000E+000 0.000000000000000E+000
 0.375000000000000E+000 0.750000000000000E+000 0.000000000000000E+000
 0.125000000000000E+000 0.750000000000000E+000 0.000000000000000E+000
 0.625000000000000E+000 0.250000000000000E+000 0.000000000000000E+000
 0.875000000000000E+000 0.250000000000000E+000 0.000000000000000E+000
 0.875000000000000E+000 0.750000000000000E+000 0.000000000000000E+000
 0.625000000000000E+000 0.750000000000000E+000 0.000000000000000E+000
 0.100000000000000E+001 0.500000000000000E+000 0.000000000000000E+000
 0.000000000000000E+000 0.500000000000000E+000 0.000000000000000E+000
 0.500000000000000E+000 0.000000000000000E+000 0.000000000000000E+000
 0.125000000000000E+000 0.500000000000000E+000 0.000000000000000E+000
 0.000000000000000E+000 0.750000000000000E+000 0.000000000000000E+000
 0.000000000000000E+000 0.250000000000000E+000 0.000000000000000E+000
 0.000000000000000E+000 0.875000000000000E+000 0.000000000000000E+000
 0.308529810216860E+000 0.500255759132561E+000 0.000000000000000E+000
 0.250000000000000E+000 0.000000000000000E+000 0.000000000000000E+000
 0.125000000000000E+000 0.375000000000000E+000 0.000000000000000E+000
 0.125000000000000E+000 0.625000000000000E+000 0.000000000000000E+000
 0.000000000000000E+000 0.375000000000000E+000 0.000000000000000E+000
 0.000000000000000E+000 0.437500000000000E+000 0.000000000000000E+000
 0.625000000000000E-001 0.406250000000000E+000 0.000000000000000E+000
 0.125000000000000E+000 0.437500000000000E+000 0.000000000000000E+000
 0.216796875000000E+000 0.382812500000000E+000 0.000000000000000E+000
 0.183593750000000E+000 0.468750000000000E+000 0.000000000000000E+000
 0.375000000000000E+000 0.500000000000000E+000 0.000000000000000E+000
 0.250000000000000E+000 0.468750000000000E+000 0.000000000000000E+000
 0.625000000000000E-001 0.481770833333333E+000 0.000000000000000E+000
 0.184176834650379E+000 0.540399924344460E+000 0.000000000000000E+000
 0.216796875000000E+000 0.432195490056818E+000 0.000000000000000E+000
 0.168571309840426E+000 0.406250000000000E+000 0.000000000000000E+000
 0.125000000000000E+000 0.687500000000000E+000 0.000000000000000E+000
 0.255828208111702E+000 0.540763692652926E+000 0.000000000000000E+000
 0.375000000000000E+000 0.375000000000000E+000 0.000000000000000E+000
 0.375000000000000E+000 0.625000000000000E+000 0.000000000000000E+000
 0.220170948184400E+000 0.507406813570504E+000 0.000000000000000E+000
 0.219557967718869E+000 0.628145457476636E+000 0.000000000000000E+000
 0.125000000000000E+000 0.562500000000000E+000 0.000000000000000E+000
 0.000000000000000E+000 0.625000000000000E+000 0.000000000000000E+000
 0.375000000000000E+000 0.437500000000000E+000 0.000000000000000E+000
 0.280323303380492E+000 0.407503995028409E+000 0.000000000000000E+000
 0.375000000000000E+000 0.562500000000000E+000 0.000000000000000E+000
 0.219817452482738E+000 0.577034793653623E+000 0.000000000000000E+000
 0.885901781235304E-001 0.531250000000000E+000 0.000000000000000E+000
 0.312500000000000E+000 0.250000000000000E+000 0.000000000000000E+000
 0.297268942273640E+000 0.626076494243052E+000 0.000000000000000E+000
 0.168732375746058E+000 0.593750000000000E+000 0.000000000000000E+000
 0.173890458776596E+000 0.343750000000000E+000 0.000000000000000E+000
 0.183963193611824E+000 0.278873942859495E+000 0.000000000000000E+000
 0.250000000000000E+000 0.250000000000000E+000 0.000000000000000E+000
 0.237162500098357E+000 0.317347265649589E+000 0.000000000000000E+000
 0.250000000000000E+000 0.750000000000000E+000 0.000000000000000E+000
 0.292902283271084E+000 0.575476271929907E+000 0.000000000000000E+000
 0.125000000000000E+000 0.312500000000000E+000 0.000000000000000E+000
 0.585937500000000E-001 0.335937500000000E+000 0.000000000000000E+000
 0.000000000000000E+000 0.312500000000000E+000 0.000000000000000E+000
 0.336992576921227E+000 0.687500000000000E+000 0.000000000000000E+000
 0.312500000000000E+000 0.750000000000000E+000 0.000000000000000E+000
 0.270599706447422E+000 0.686880677247748E+000 0.000000000000000E+000
 0.500000000000000E+000 0.100000000000000E+001 0.000000000000000E+000
 0.250000000000000E+000 0.100000000000000E+001 0.000000000000000E+000
 0.375000000000000E+000 0.100000000000000E+001 0.000000000000000E+000
 0.281250000000000E+000 0.830729166666667E+000 0.000000000000000E+000
 0.343750000000000E+000 0.312500000000000E+000 0.000000000000000E+000
 0.318389033445014E+000 0.364242983277493E+000 0.000000000000000E+000
 0.267787317245899E+000 0.358095790057897E+000 0.000000000000000E+000
 0.289796410792034E+000 0.300414294603983E+000 0.000000000000000E+000
 0.274503756719177E+000 0.737152390322435E-001 0.000000000000000E+000
 0.343750000000000E+000 0.183159722222222E+000 0.000000000000000E+000
 0.246744791666667E+000 0.146267361111111E+000 0.000000000000000E+000
 0.485980902777778E+000 0.146267361111111E+000 0.000000000000000E+000
 0.302262721771688E+000 0.146267361111111E+000 0.000000000000000E+000
 0.274503756719177E+000 0.197313658770435E+000 0.000000000000000E+000
 0.375000000000000E+000 0.000000000000000E+000 0.000000000000000E+000
 0.420862160086615E+000 0.187832617434252E+000 0.000000000000000E+000
 0.384683294119816E+000 0.146267361111111E+000 0.000000000000000E+000
 0.330565923051619E+000 0.413335216176427E+000 0.000000000000000E+000
 0.352621063931298E+000 0.818811625318066E+000 0.000000000000000E+000
 0.312179705605879E+000 0.796288985503351E+000 0.000000000000000E+000
 0.500000000000000E+000 0.828697389616904E+000 0.000000000000000E+000
 0.427559261986282E+000 0.805138192500353E+000 0.000000000000000E+000
 0.399035374849065E+000 0.860999763838749E+000 0.000000000000000E+000
 0.312500000000000E+000 0.000000000000000E+000 0.000000000000000E+000
 0.187500000000000E+000 0.820606518817204E+000 0.000000000000000E+000
 0.466707069430364E+000 0.898575881689250E+000 0.000000000000000E+000
 0.511172798160702E+000 0.257526753061783E+000 0.000000000000000E+000
 0.453250172578119E+000 0.849294180402265E+000 0.000000000000000E+000
 0.937500000000000E-001 0.504496261452806E-001 0.000000000000000E+000
 0.403162177800535E+000 0.933291523780214E+000 0.000000000000000E+000
 0.437500000000000E+000 0.100000000000000E+001 0.000000000000000E+000
 0.312500000000000E+000 0.934315683855312E+000 0.000000000000000E+000
 0.453353205989905E+000 0.949647808263675E+000 0.000000000000000E+000
 0.358054120979715E+000 0.953547171775243E+000 0.000000000000000E+000
 0.325154404090345E+000 0.873991089312954E+000 0.000000000000000E+000
 0.367644435624882E+000 0.899055397729593E+000 0.000000000000000E+000
 0.236990017361111E+000 0.801449092741935E+000 0.000000000000000E+000
 0.443167922913219E+000 0.252288460541578E+000 0.000000000000000E+000
 0.477263196714215E+000 0.204401840413902E+000 0.000000000000000E+000
 0.562394794036017E+000 0.187447086349591E+000 0.000000000000000E+000
 0.625000000000000E+000 0.375000000000000E+000 0.000000000000000E+000
 0.407024191230044E+000 0.312500000000000E+000 0.000000000000000E+000
 0.474084945258901E+000 0.294963270028168E+000 0.000000000000000E+000
 0.216342369774119E+000 0.930487241414522E-001 0.000000000000000E+000
 0.157072243143605E+000 0.162201579117130E+000 0.000000000000000E+000
 0.187500000000000E+000 0.000000000000000E+000 0.000000000000000E+000
 0.174352819470591E+000 0.117036261141583E+000 0.000000000000000E+000
 0.125000000000000E+000 0.000000000000000E+000 0.000000000000000E+000
 0.218750000000000E+000 0.413079239859885E-001 0.000000000000000E+000
 0.131982343008202E+000 0.962324019836500E-001 0.000000000000000E+000
 0.866442243142230E-001 0.109366815743071E+000 0.000000000000000E+000
 0.000000000000000E+000 0.125000000000000E+000 0.000000000000000E+000
 0.156250000000000E+000 0.557461246091935E-001 0.000000000000000E+000
 0.343473007945752E+000 0.889135573360382E-001 0.000000000000000E+000
 0.316206161479800E+000 0.485604570335434E-001 0.000000000000000E+000
 0.430629647389619E+000 0.697713778434944E-001 0.000000000000000E+000
 0.391175490408355E+000 0.981202752650288E-001 0.000000000000000E+000
 0.444501950008550E+000 0.736368377006958E+000 0.000000000000000E+000
 0.398829470438439E+000 0.687500000000000E+000 0.000000000000000E+000
 0.513688817046671E+000 0.757625009132424E+000 0.000000000000000E+000
 0.625000000000000E+000 0.500000000000000E+000 0.000000000000000E+000
 0.473588841595499E+000 0.786756047776317E+000 0.000000000000000E+000
 0.478860669310979E+000 0.411527234375853E+000 0.000000000000000E+000
 0.572911532233985E+000 0.805885984489640E+000 0.000000000000000E+000
 0.447298813474571E+000 0.682006891579307E+000 0.000000000000000E+000
 0.504019394669429E+000 0.534902916754864E+000 0.000000000000000E+000
 0.486274863958833E+000 0.352843653662708E+000 0.000000000000000E+000
 0.551332894747653E+000 0.390873360445252E+000 0.000000000000000E+000
 0.433027718644055E+000 0.375926460599989E+000 0.000000000000000E+000
 0.437992666628316E+000 0.468750000000000E+000 0.000000000000000E+000
 0.421394775819071E+000 0.423093236096220E+000 0.000000000000000E+000
 0.501785840486804E+000 0.471105361968983E+000 0.000000000000000E+000
 0.433650269193003E+000 0.539110962574808E+000 0.000000000000000E+000
 0.559767288621728E+000 0.501013305633588E+000 0.000000000000000E+000
 0.473047166828055E+000 0.607447789310414E+000 0.000000000000000E+000
 0.551301338206151E+000 0.446268697831009E+000 0.000000000000000E+000
 0.625000000000000E+000 0.625000000000000E+000 0.000000000000000E+000
[...]
CELL_DATA         2368
SCALARS tdens double 1
LOOKUP_TABLE default
 0.264507369705669E-004
 0.474539988900736E-004
 0.152537493492191E-004
 0.292366558446548E-004
 0.611623575398355E-005
 0.717358085284931E-005
 0.664180980238837E-005
 0.661646000763203E-005
 0.185116450245438E-001
 0.495335358117667E-001
 0.503484108246665E-002
 0.296216017861211E-001
 0.107877326454884E+001
 0.147829086462988E+000
 0.671500038320366E+000
 0.777933117496713E-001
 0.116829513536519E-002
 0.549411111796808E-003
 0.772706948720932E-003
 0.819230566093191E-003
 0.238286809601987E-005
 0.224729178525342E-005
 0.227071387072250E-005
 0.230143648749724E-005
 0.111116787826530E-004
 0.414418187970635E-004
 0.243317214420630E-004
 0.187106163994366E-004
 0.522044010094268E-003
 0.535711524397903E-003
 0.237269735946698E-002
 0.599828779738249E-003
 0.352929573992701E-003
 0.442267741607492E-003
 0.249074511086753E-003
 0.324689054233919E-003
 0.657438390352850E-005
 0.613430664401578E-005
 0.677996121256414E-005
 0.645974673854044E-005
 0.713887072176784E-005
 0.777235427495357E-005
 0.825161661645955E-005
 0.767532033599396E-005
 0.320011856695695E-004
 0.266997175967348E-004
 0.192582069883131E-004
 0.246077784533209E-004
 0.400424936492463E-001
 0.308733051080769E-001
 0.154333673201223E-001
 0.347403208217575E-001
 0.531537270480328E-004
 0.470524450881216E-004
 0.760062282796089E-004
 0.523689728755857E-004
 0.221251685621513E-005
 0.216404156495796E-005
 0.221788180345198E-005
 0.218683998894949E-005
 0.857641517538053E-005
 0.102050646185536E-004
 0.886803862488187E-005
 0.929170787227788E-005
 0.135994815726572E-004
 0.109409388104501E-004
 0.147915302122720E-004
 0.128657054715134E-004
 0.291757999430755E-005
 0.308673405687337E-005
 0.301727558750594E-005
 0.298060631851356E-005
 0.348547899539683E-005
 0.511251909914422E-005
 0.321192297773578E-005
 0.358904820984411E-005
 0.268296912543248E-002
 0.159114411772113E-002
 0.579994808149232E-003
 0.165675472592875E-002
 0.183378541859645E-003
 0.818189598347626E-003
 0.197456676224363E-003
 0.195912763992166E-003
 0.697914715684118E-005
 0.440023785800192E-005
 0.597113798552435E-005
 0.526640062946786E-005
 0.183824448047677E-001
 0.609471015396101E-001
 0.868856312972593E-002
 0.268268858391048E-002
 0.286938446546493E-005
 0.296697316680398E-005
 0.306660966233866E-005
 0.296848747407187E-005
 0.656479129337519E+000
 0.654229012986985E+000
 0.118584674683021E+001
 0.232728745348652E+000
 0.218525624919390E-002
 0.426216772918823E-002
 0.240639605867597E+000
 0.219924128769282E-002
 0.311196050653597E-005
 0.290501157439489E-005
 0.314205766537084E-005
 0.300380719837699E-005
 0.339586130128099E-005
 0.319340809098673E-005
 0.355778108984987E-005
 0.335303092228280E-005
 0.368228370105398E-005
 0.385271770495426E-005
 0.351553031300056E-005
 0.366637526086685E-005
 0.359791098308280E-004
 0.445579726947774E-004
 0.757486493739123E-004
 0.491534132019321E-004
 0.168042762887568E-003
 0.944313310254921E-004
 0.177703785103639E-003
 0.157154019253033E-003
 0.798012873601652E-005
 0.459238284252629E-005
 0.518375447820407E-005
 0.541455399629496E-005
 0.368691176679936E-005
 0.363051395539204E-005
 0.360571373630496E-005
 0.364491877404686E-005
 0.148323285233139E-001
 0.173318811808003E-002
 0.164521105316408E-002
 0.188119903886556E-002
 0.533141060762258E-005
 0.384372471278016E-005
 0.533560432132959E-005
 0.444343548863734E-005
 0.553066410615043E-005
 0.466686171186549E-005
 0.941990547585746E-005
 0.574299043539195E-005
 0.381316802218773E-005
 0.382228484780319E-005
 0.401140133841437E-005
 0.386249620512057E-005
 0.375881671350836E-005
 0.373299160049810E-005
 0.365677489371268E-005
 0.371615245888898E-005
 0.364204069944623E-005
 0.306064132528010E-005
 0.426069790054497E-005
 0.334501215467251E-005
 0.425713072099364E-002
 0.446028525559723E-003
 0.287210088188659E-003
 0.439376155637371E-002
 0.215622850978648E-001
 0.407425715673310E-002
 0.195784076655381E-001
 0.374960655363564E-002
 0.120716868428513E-001
 0.210192390171481E-001
 0.276867417641037E-001
 0.710344635343015E-001
 0.255779980698135E-002
 0.119912883285402E-002
 0.454218923456967E-005
 0.522275959542206E-003
 0.305661328700409E+000
 0.121722021585773E+000
 0.583635895973907E-001
 0.749103858823889E-001
 0.362672211457156E-001
 0.316065919448263E+000
 0.235223560160951E-001
 0.617041029548153E-001
 0.287111629778287E-003
 0.283742740275447E-003
 0.320834635499528E-002
 0.459411425602408E-002
 0.416400591205457E-005
 0.408080421315043E-005
 0.378204581548414E-005
 0.396054204345345E-005
 0.440293239507671E-004
 0.284064641927497E-004
 0.349244084858984E-004
 0.362228985382104E-004
 0.355656098694669E-005
 0.358199060672806E-005
 0.347231331181851E-005
 0.351234272580179E-005
 0.421971085363927E-005
 0.376704367915584E-005
 0.371076865071684E-005
 0.376011561017198E-005
 0.368492619342207E-003
 0.287809258304377E-003
 0.652394494741500E-002
 0.492930350794426E-002
 0.198342625032002E-003
 0.619232807967717E-004
 0.348386115340576E-002
 0.647008558612199E-004
 0.198613444013790E-002
 0.411131015135407E-001
 0.478360244367769E-002
 0.235937470549729E-001
 0.175629678047928E-002
 0.849071202821331E-003
 0.196967440772835E-002
 0.970433305875519E-003
 0.676375761450687E-002
 0.244814493356413E-003
 0.571949325811271E-003
 0.293459530906902E-003
 0.246218731591558E-002
 0.273674123380215E-003
 0.274370854196232E-003
 0.143073124289748E-002
 0.271270058882754E+000
 0.745201933230138E-002
 0.381624237063841E+000
 0.480024270568676E+000
 0.356276012990565E-005
 0.339806000575004E-005
 0.341040290589482E-005
 0.346683970788402E-005
 0.568429881517424E-002
 0.141575858926165E+000
 0.465861914483685E+000
 0.594010396976166E-002
 0.166297466492212E-004
 0.248606991852198E-004
 0.954448179968454E-005
 0.136997713012367E-004
 0.845326846363279E-005
 0.778756437451607E-005
 0.932528498714991E-005
 0.837060392596653E-005
 0.183364081557968E-004
 0.221285451444046E-004
 0.296290854169285E-004
 0.232119851932143E-004
 0.183800786849570E-002
 0.344709056826003E-002
 0.143070493380414E-002
 0.230265110715027E-002
 0.174088583291094E-004
 0.161930906060057E-004
 0.219384730475688E-004
 0.177670289755169E-004
 0.622290189688068E-002
 0.726170037749667E-001
 0.109801473261656E-001
 0.100710606167227E-001
 0.354057923926105E-001
 0.298500530966272E-001
 0.283663743464751E-001
 0.230133947542753E-001
 0.234092733257415E-002
 0.137363152167587E-001
 0.139104091627758E-002
 0.264458214587530E-002
 0.213985644995493E-003
 0.564346086788880E-003
 0.286707941082592E-003
 0.297274420931645E-003
 0.125546365268724E-003
 0.135481295369041E-001
 0.183800364331196E-002
 0.784544380210165E-003
 0.447804203012665E-004
 0.365515025258354E-004
 0.747910550607605E-004
 0.433445233274030E-004
 0.409216104310128E-005
 0.383814110627837E-005
 0.470710029397361E-005
 0.401734339760760E-005
 0.970090244678309E-002
 0.303308562645701E-002
 0.189110844944644E-002
 0.108013546525171E-002
 0.286220337224291E-002
 0.432075560544194E-002
 0.289389571648377E+000
 0.601868150279291E-002
 0.129789320515687E-002
 0.176689305872724E-002
 0.180656527166031E-002
 0.186300989683461E-002
 0.206595030196715E-003
 0.463975466209684E-004
 0.650432896589597E-004
 0.734931517259154E-004
 0.415788142865082E-003
 0.265941460376937E-003
 0.131190872677980E-002
 0.338104668808604E-003
 0.452099495239445E-002
 0.273827075495823E-001
 0.279134147058715E+001
 0.359678252716389E-001
 0.623081043858189E-003
 0.668331313473347E-003
 0.861307555617273E-003
 0.821151599941864E-003
 0.150083647485973E-002
 0.439342765467407E-002
 0.138234396396717E-002
 0.150277022887390E-002
 0.678290024178365E-002
 0.376712879373965E-004
 0.146862953783521E-002
 0.126590154811383E-002
 0.632301178139260E-005
 0.443462600125074E-005
 0.712874400729932E-005
 0.567348547443188E-005
 0.378721325517622E-005
 0.349097666948308E-005
 0.394742971848708E-005
 0.372130692526228E-005
 0.333790811164526E-001
 0.103100306460265E-001
 0.777337191052864E+000
 0.302410511002932E-001
 0.459429613693348E-003
 0.194003872945516E-003
 0.486550598658605E-003
 0.529308905123363E-003
 0.521769681274106E-002
 0.308063440495584E-002
 0.176695106660793E+000
 0.295731462121457E-002
 0.186491338247686E-003
 0.304696386346222E-003
 0.480814441775615E-003
 0.361273788119488E-003
 0.110856790644374E-001
 0.182874269479054E-003
 0.189752768808689E-002
 0.405660717955421E-002
 0.930043034427621E-004
 0.580983809230689E-004
 0.298502500454204E-003
 0.860946331217807E-004
 0.805505527778741E-003
 0.185033581321369E-003
 0.713783286710597E-002
 0.327508090068643E-002
 0.540160392776189E-003
 0.656032428896346E-003
 0.984589228310169E-003
 0.130888471718010E-002
 0.881575625371653E-005
 0.248721065250577E-004
 0.443081343072064E-004
 0.210252029535031E-004
 0.771561117877209E-002
 0.120267777425057E-001
 0.464226156036974E+000
 0.103322228986386E-001
 0.605290447149240E-004
 0.128162932301241E-003
 0.102660303096910E-003
 0.940101082347028E-004
 0.580455071194559E-003
 0.100747754545249E-002
 0.224617528392100E-002
 0.110065265760361E-002
 0.854176086796656E-002
 0.246709707761534E+000
 0.497027157063115E-001
 0.346549706671012E-003
 0.191667762313036E-004
 0.124850705497271E-004
 0.143565086117655E-004
 0.151878260646164E-004
 0.161073469197956E-002
 0.117663084209143E-002
 0.931908258051806E-003
 0.904300248986903E-003
 0.770320186912808E-002
 0.180705218402273E+000
 0.261439340287360E+000
 0.170609964347728E+000
 0.247240352573120E-002
 0.349933385408771E-002
 0.202179163865981E+001
 0.486811652871791E-002
 0.655495273955376E-003
 0.546631460470599E-003
 0.289840386811141E-003
 0.405862589454930E-003
 0.392014354460322E-004
 0.373964352756877E-004
 0.850500060713039E-005
 0.170121410284721E-004
 0.456063593159310E+000
 0.181861526839990E+000
 0.571095135788474E-001
 0.929576793308564E-001
 0.345358019685345E-005
 0.366061430664240E-005
 0.369808503132923E-005
 0.358005888246934E-005
 0.390715804781993E-005
 0.431028944291463E-005
 0.379167227668857E-005
 0.398461052516980E-005
 0.134141241686765E-002
 0.831785662169068E-002
 0.428263382335792E-002
 0.751049128158505E-002
 0.397452681039733E-005
 0.383453402866204E-005
 0.383224794155721E-005
 0.387874742950762E-005
 0.813809701257460E-003
 0.136072448302769E-002
 0.114876177118971E-002
 0.146379737040137E-002
 0.704428770650499E-002
 0.124229972883315E+000
 0.101943351841706E+000
 0.149211788842715E+000
 0.305784293816239E+000
 0.325375177240212E+000
 0.161991109784440E-002
 0.234999353401205E+000
 0.257300619809954E-003
 0.605198732781555E-003
 0.573258072883578E-002
 0.103005915726437E-001
 0.287241882730509E-003
 0.491962976349910E-003
 0.590787183868576E-003
 0.695820411015268E-003
 0.226184777503311E-003
 0.101928764735811E-003
 0.192301275928306E-003
 0.178398505224290E-003
 0.730236891302991E-004
 0.112498403746604E-003
 0.132583638288671E-003
 0.109767761753192E-003
 0.604249976771698E-003
 0.114535293557368E-002
 0.283497231526397E-002
 0.114294888857803E-002
 0.243844584119504E-004
 0.247990141153642E-004
 0.323219438861420E-004
 0.257365794187582E-004
 0.173180721835023E-004
 0.171194436086960E-004
 0.244729571268547E-004
 0.184076248384428E-004
 0.648634156318111E-001
 0.748478070273854E-002
 0.848340266607492E-002
 0.148857511042860E-001
 0.133681725217819E-002
 0.312841410527264E-003
 0.415402816251061E-003
 0.414132712801660E-003
 0.670349453648944E-004
 0.174897370247306E-003
 0.144436771099253E-003
 0.128505922835245E-003
 0.576028776012707E-003
 0.115941410944332E-002
 0.158684122156782E-002
 0.179974100033430E-002
 0.838066731638452E+000
 0.272356485588634E-001
 0.767095665259112E+000
 0.428809584831663E+000
 0.743883389262649E+000
 0.533983418217465E+000
 0.762001190197034E-002
 0.528679730374458E+000
 0.181056238559869E-003
 0.235143577795566E-003
 0.523877654932898E-003
 0.243312607836526E-003
 0.815050504437569E-003
 0.312787968370114E-003
 0.132279664128962E-002
 0.852696373948125E-003
 0.102311852495394E-004
 0.965164431831152E-005
 0.119887896485146E-004
 0.104193478168298E-004
 0.163072757227789E-004
 0.215073355781641E-004
 0.154199643702549E-004
 0.172459965246984E-004
 0.533907976409740E-002
 0.308161863387728E+000
 0.274320758486253E-003
 0.578166714239560E-002
 0.122205246736829E-004
 0.203153085608501E-004
 0.127149571717009E-004
 0.141492938255780E-004
 0.936105462845337E-002
 0.260115231839451E-003
 0.780910856551124E-003
 0.977216837502225E-002
 0.398424976903758E-005
 0.300923662793132E-005
 0.547821943388822E-005
 0.376602579325973E-005
 0.107278115632812E-004
 0.127616595309992E-004
 0.109112530111187E-004
 0.113251832795129E-004
 0.185143586030150E-004
 0.156758811517637E-004
 0.139076224410043E-004
 0.155912798178680E-004
 0.877164316801055E-004
 0.405277608658504E-004
 0.841574018882023E-004
 0.713299215020667E-004
 0.711162563717030E-004
 0.218045102956679E-004
 0.144157811812081E-004
 0.207135276451638E-004
 0.899433791494620E-004
 0.418136882023413E-004
 0.894333808405431E-004
 0.650111097986985E-004
 0.737528304022074E-004
 0.346666084543353E-004
 0.338619607160416E-004
 0.389854244240098E-004
 0.433913417592384E-005
 0.432719331178070E-005
 0.528033014664854E-005
 0.453718539459352E-005
 0.936308772037385E-004
 0.505899658689515E-004
 0.804630247165219E-004
 0.793595230709585E-004
 0.236169991963786E-004
 0.235514103085007E-004
 0.165309494001450E-004
 0.209334214344139E-004
 0.914732110267108E-005
 0.122368586730430E-004
 0.115291795054521E-004
 0.108892559142095E-004
 0.349614441772948E-003
 0.192313125944971E-003
 0.327250705142740E-003
 0.308068520703332E-003
 0.101552807779128E-004
 0.133667715492221E-004
 0.128109234838742E-004
 0.119810652278288E-004
 0.977549168506034E-004
 0.608805584651461E-004
 0.847402208203905E-004
 0.873613989202268E-004
 0.124983638555217E-004
 0.110816204609508E-004
 0.104865444487966E-004
 0.113005838503342E-004
 0.536760074328366E-003
 0.457607742768102E-003
 0.108796867392742E-002
 0.677493163374172E-003
 0.325976075511724E-004
 0.475448887187468E-004
 0.272122565288921E-004
 0.329932136677259E-004
 0.563681643036478E-003
 0.230087442933389E-003
 0.543859231213759E-003
 0.545953566607983E-003
 0.140880051717895E-001
 0.194798657314859E-002
 0.380019501778617E+000
 0.106508339400457E-001
 0.178354978957892E-003
 0.310282858800951E-003
 0.203279032609265E-003
 0.228585232694926E-003
 0.491857701312448E-004
 0.895987331948496E-004
 0.303319262244179E-004
 0.432634660459568E-004
 0.352782733101487E-002
 0.125033792973400E+000
 0.164042765635348E+000
 0.681065197295208E-001
 0.466108634233986E-004
 0.372524366476422E-004
 0.277408175724370E-004
 0.373163170846891E-004
 0.131362841567103E-003
 0.251458115662033E-003
 0.285706578766950E-003
 0.238248427088559E-003
 0.498584843151282E-005
 0.691520546848125E-005
 0.107907712240808E-004
 0.657594824678282E-005
 0.150062068124859E-004
 0.161890752489176E-004
 0.187665149150982E-004
 0.169758996017917E-004
 0.284328203328526E-005
 0.257777013331065E-005
 0.279210344771061E-005
 0.273740088686985E-005
 0.208498610638022E-003
 0.108457296868983E-003
 0.966514379324541E-004
 0.113611915693865E-003
 0.909971221752457E-005
 0.511847252211077E-005
 0.616492171365465E-005
 0.647381143949397E-005
 0.920304410264942E-004
 0.755218320097475E-004
 0.134354311006585E-003
 0.856729052658636E-004
 0.156715610383546E-004
 0.168749476304639E-004
 0.204525667784518E-004
 0.173396651106317E-004
 0.271055566454883E-005
 0.283188711510805E-005
 0.336847169949535E-005
 0.297337148578940E-005
 0.602396253219762E-004
 0.716803465400543E-004
 0.156056420798365E-003
 0.796637093661073E-004
 0.650603107418847E-004
 0.756773446937592E-004
 0.475202244581995E-004
 0.596660557867449E-004
 0.134715520975121E-003
 0.139210136845680E-003
 0.957680554727082E-004
 0.148261287094598E-003
 0.212598315677962E-004
 0.189388190791298E-004
 0.207913283277097E-004
 0.199322309010569E-004
 0.803596619970533E-005
 0.891673965268362E-005
 0.971982904746640E-005
 0.890276999325594E-005
 0.129300452340674E-003
 0.141070688999628E-004
 0.273344899832750E-004
 0.227805442023626E-004
 0.158880057614804E-004
 0.190728038395786E-004
 0.177860387341084E-004
 0.172075118938621E-004
 0.625921709870730E-004
 0.116506330188309E-003
 0.148797178429785E-003
 0.107972072460296E-003
 0.558139268275490E-005
 0.684201620562666E-005
 0.577444684058913E-005
 0.607986265518132E-005
 0.203554212280973E-004
 0.190920053954406E-004
 0.209120011650517E-004
 0.201297848587843E-004
 0.119717200050439E-004
 0.145253187729426E-004
 0.140634149415612E-004
 0.131084790949680E-004
 0.187149736046585E-004
 0.305174760295862E-004
 0.273170582057111E-004
 0.263361733792353E-004
 0.764524075317206E-004
 0.589956774398891E-004
 0.140250625182466E-003
 0.810098952636399E-004
 0.218786904776849E-004
 0.307555606945752E-004
 0.178825596176036E-004
 0.219685213768647E-004
 0.183354946257336E-004
 0.251975513903545E-004
 0.222022361927405E-004
 0.215803154562900E-004
 0.441035089191317E-004
 0.550398226554489E-004
 0.363180235337287E-004
 0.432457633413148E-004
 0.807438000643333E-004
 0.498591561319196E-003
 0.155839273841308E-003
 0.212593917071259E-003
 0.689326610974885E-001
 0.840435470642822E-002
 0.519236989046283E-002
 0.610452958477791E-002
 0.118625654143183E-004
 0.130057222741930E-004
 0.995869704739800E-005
 0.116989183236824E-004
 0.201220657543750E-004
 0.161970264927316E-004
 0.212431019991292E-004
 0.192631233646227E-004
 0.860176375679547E-005
 0.107775192076142E-004
 0.916247423264352E-005
 0.933308231701366E-005
 0.147294161579715E-004
 0.180316461915290E-004
 0.136536836168644E-004
 0.152470077186629E-004
 0.497095332878378E-005
 0.545898411906453E-005
 0.540182409886622E-005
 0.520262092118962E-005
 0.701189175199912E-005
 0.695344756545357E-005
 0.795959459111739E-005
 0.730973334611813E-005
 0.127241995401704E+001
 0.104999305213302E+001
 0.119617441925618E-001
 0.965482525253197E+000
 0.520428756120583E-003
 0.140183971377749E-002
 0.109989480291948E-002
 0.134442344680624E-002
 0.393028985086229E-004
 0.274332648844059E-004
 0.456332542802885E-004
 0.366853523168105E-004
 0.426769446493881E-004
 0.259018140470634E-004
 0.272769736267680E-004
 0.291260659910062E-004
 0.272697090027864E-004
 0.239826278300062E-004
 0.338576395198908E-004
 0.268678793402075E-004
 0.952880928893801E-003
 0.793790181673455E-003
 0.414785233803766E-003
 0.669871970821715E-003
 0.187188581791037E-002
 0.104081940171705E-003
 0.693909996844032E-004
 0.611926569346158E-003
 0.570158902201805E-005
 0.553894932949007E-005
 0.470150129180419E-005
 0.525996552445019E-005
 0.554840441549784E-003
 0.719973877009270E-001
 0.851290861586979E-002
 0.131545844247933E-001
 0.382857452092085E-005
 0.415260998315561E-005
 0.293613066112923E-005
 0.342853647487639E-005
 0.556767145399287E-005
 0.116670960780814E-004
 0.123784684933956E-004
 0.898870849804574E-005
 0.724749681166574E-005
 0.996968316299310E-005
 0.112751071527157E-004
 0.924486011000933E-005
 0.708454274048976E-002
 0.349496613138344E-004
 0.411426219315458E-003
 0.537157946458767E-003
 0.251973021987346E-005
 0.228236131372345E-005
 0.262088737736201E-005
 0.241770486299184E-005
 0.391016185914811E-005
 0.305267089045643E-005
 0.273325404396676E-005
 0.319803478733905E-005
 0.676279258494556E-005
 0.816449533436573E-005
 0.867850670818072E-005
 0.777181541408990E-005
 0.309995772570399E-005
 0.381426306977801E-005
 0.370098501015407E-005
 0.346184037185237E-005
 0.591859300829522E-005
 0.480060096678422E-005
 0.107622944560977E-004
 0.624180269716863E-005
 0.671017768705279E-005
 0.731646836925069E-005
 0.781217450358207E-005
 0.719533229049582E-005
 0.223222349588619E-005
 0.224005192470083E-005
 0.236559491389079E-005
 0.226684578145791E-005
 0.873669080494029E-005
 0.768929728315503E-005
 0.799038191328557E-005
 0.819680496074851E-005
 0.274339492116817E-002
 0.310438401608466E-003
 0.247636891994551E-001
 0.350597846928696E-002
 0.905414363657900E-005
 0.180983212368510E-004