# vtk DataFile Version 3.0
Unstructured Grid
ASCII
DATASET UNSTRUCTURED_GRID
FIELD FieldData 1
TIME 1 1 float
  0.359931E+02
POINTS         1241 double
 0.000000000000000E+000 0.000000000000000E+000 0.000000000000000E+000
 0.100000000000000E+001 0.000000000000000E+000 0.000000000000000E+000
 0.100000000000000E+001 0.100000000000000E+001 0.000000000000000E+000
 0.000000000000000E+000 0.100000000000000E+001 0.000000000000000E+000
 0.125000000000000E+000 0.250000000000000E+000 0.000000000000000E+000
 0.375000000000000E+000 0.250000000000000E+000 0.000000000000000E+000
 0.375000000000000E+000 0.750000000000000E+000 0.000000000000000E+000
 0.125000000000000E+000 0.750000000000000E+000 0.000000000000000E+000
 0.625000000000000E+000 0.250000000000000E+000 0.000000000000000E+000
 0.875000000000000E+000 0.250000000000000E+000 0.000000000000000E+000
 0.875000000000000E+000 0.750000000000000E+000 0.000000000000000E+000
 0.625000000000000E+000 0.750000000000000E+000 0.000000000000000E+000
 0.100000000000000E+001 0.500000000000000E+000 0.000000000000000E+000
 0.000000000000000E+000 0.500000000000000E+000 0.000000000000000E+000
 0.500000000000000E+000 0.000000000000000E+000 0.000000000000000E+000
 0.125000000000000E+000 0.500000000000000E+000 0.000000000000000E+000
 0.000000000000000E+000 0.750000000000000E+000 0.000000000000000E+000
 0.000000000000000E+000 0.250000000000000E+000 0.000000000000000E+000
 0.000000000000000E+000 0.875000000000000E+000 0.000000000000000E+000
 0.308529810216860E+000 0.500255759132561E+000 0.000000000000000E+000
 0.250000000000000E+000 0.000000000000000E+000 0.000000000000000E+000
 0.125000000000000E+000 0.375000000000000E+000 0.000000000000000E+000
 0.125000000000000E+000 0.625000000000000E+000 0.000000000000000E+000
 0.000000000000000E+000 0.375000000000000E+000 0.000000000000000E+000
 0.000000000000000E+000 0.437500000000000E+000 0.000000000000000E+000
 0.625000000000000E-001 0.406250000000000E+000 0.000000000000000E+000
 0.125000000000000E+000 0.437500000000000E+000 0.000000000000000E+000
 0.216796875000000E+000 0.382812500000000E+000 0.000000000000000E+000
 0.183593750000000E+000 0.468750000000000E+000 0.000000000000000E+000
 0.375000000000000E+000 0.500000000000000E+000 0.000000000000000E+000
 0.250000000000000E+000 0.468750000000000E+000 0.000000000000000E+000
 0.625000000000000E-001 0.481770833333333E+000 0.000000000000000E+000
 0.184176834650379E+000 0.540399924344460E+000 0.000000000000000E+000
 0.216796875000000E+000 0.432195490056818E+000 0.000000000000000E+000
 0.168571309840426E+000 0.406250000000000E+000 0.000000000000000E+000
 0.125000000000000E+000 0.687500000000000E+000 0.000000000000000E+000
 0.255828208111702E+000 0.540763692652926E+000 0.000000000000000E+000
 0.375000000000000E+000 0.375000000000000E+000 0.000000000000000E+000
 0.375000000000000E+000 0.625000000000000E+000 0.000000000000000E+000
 0.220170948184400E+000 0.507406813570504E+000 0.000000000000000E+000
 0.219557967718869E+000 0.628145457476636E+000 0.000000000000000E+000
 0.125000000000000E+000 0.562500000000000E+000 0.000000000000000E+000
 0.000000000000000E+000 0.625000000000000E+000 0.000000000000000E+000
 0.375000000000000E+000 0.437500000000000E+000 0.000000000000000E+000
 0.280323303380492E+000 0.407503995028409E+000 0.000000000000000E+000
 0.375000000000000E+000 0.562500000000000E+000 0.000000000000000E+000
 0.219817452482738E+000 0.577034793653623E+000 0.000000000000000E+000
 0.885901781235304E-001 0.531250000000000E+000 0.000000000000000E+000
 0.312500000000000E+000 0.250000000000000E+000 0.000000000000000E+000
 0.297268942273640E+000 0.626076494243052E+000 0.000000000000000E+000
 0.168732375746058E+000 0.593750000000000E+000 0.000000000000000E+000
 0.173890458776596E+000 0.343750000000000E+000 0.000000000000000E+000
 0.183963193611824E+000 0.278873942859495E+000 0.000000000000000E+000
 0.250000000000000E+000 0.250000000000000E+000 0.000000000000000E+000
 0.237162500098357E+000 0.317347265649589E+000 0.000000000000000E+000
 0.250000000000000E+000 0.750000000000000E+000 0.000000000000000E+000
 0.292902283271084E+000 0.575476271929907E+000 0.000000000000000E+000
 0.125000000000000E+000 0.312500000000000E+000 0.000000000000000E+000
 0.585937500000000E-001 0.335937500000000E+000 0.000000000000000E+000
 0.000000000000000E+000 0.312500000000000E+000 0.000000000000000E+000
 0.336992576921227E+000 0.687500000000000E+000 0.000000000000000E+000
 0.312500000000000E+000 0.750000000000000E+000 0.000000000000000E+000
 0.270599706447422E+000 0.686880677247748E+000 0.000000000000000E+000
 0.500000000000000E+000 0.100000000000000E+001 0.000000000000000E+000
 0.250000000000000E+000 0.100000000000000E+001 0.000000000000000E+000
 0.375000000000000E+000 0.100000000000000E+001 0.000000000000000E+000
 0.281250000000000E+000 0.830729166666667E+000 0.000000000000000E+000
 0.343750000000000E+000 0.312500000000000E+000 0.000000000000000E+000
 0.318389033445014E+000 0.364242983277493E+000 0.000000000000000E+000
 0.267787317245899E+000 0.358095790057897E+000 0.000000000000000E+000
 0.289796410792034E+000 0.300414294603983E+000 0.000000000000000E+000
 0.274503756719177E+000 0.737152390322435E-001 0.000000000000000E+000
 0.343750000000000E+000 0.183159722222222E+000 0.000000000000000E+000
 0.246744791666667E+000 0.146267361111111E+000 0.000000000000000E+000
 0.485980902777778E+000 0.146267361111111E+000 0.000000000000000E+000
 0.302262721771688E+000 0.146267361111111E+000 0.000000000000000E+000
 0.274503756719177E+000 0.197313658770435E+000 0.000000000000000E+000
 0.375000000000000E+000 0.000000000000000E+000 0.000000000000000E+000
 0.420862160086615E+000 0.187832617434252E+000 0.000000000000000E+000
 0.384683294119816E+000 0.146267361111111E+000 0.000000000000000E+000
 0.330565923051619E+000 0.413335216176427E+000 0.000000000000000E+000
 0.352621063931298E+000 0.818811625318066E+000 0.000000000000000E+000
 0.312179705605879E+000 0.796288985503351E+000 0.000000000000000E+000
 0.500000000000000E+000 0.828697389616904E+000 0.000000000000000E+000
 0.427559261986282E+000 0.805138192500353E+000 0.000000000000000E+000
 0.399035374849065E+000 0.860999763838749E+000 0.000000000000000E+000
 0.312500000000000E+000 0.000000000000000E+000 0.000000000000000E+000
 0.187500000000000E+000 0.820606518817204E+000 0.000000000000000E+000
 0.466707069430364E+000 0.898575881689250E+000 0.000000000000000E+000
 0.511172798160702E+000 0.257526753061783E+000 0.000000000000000E+000
 0.453250172578119E+000 0.849294180402265E+000 0.000000000000000E+000
 0.937500000000000E-001 0.504496261452806E-001 0.000000000000000E+000
 0.403162177800535E+000 0.933291523780214E+000 0.000000000000000E+000
 0.437500000000000E+000 0.100000000000000E+001 0.000000000000000E+000
 0.312500000000000E+000 0.934315683855312E+000 0.000000000000000E+000
 0.453353205989905E+000 0.949647808263675E+000 0.000000000000000E+000
 0.358054120979715E+000 0.953547171775243E+000 0.000000000000000E+000
 0.325154404090345E+000 0.873991089312954E+000 0.000000000000000E+000
 0.367644435624882E+000 0.899055397729593E+000 0.000000000000000E+000
 0.236990017361111E+000 0.801449092741935E+000 0.000000000000000E+000
 0.443167922913219E+000 0.252288460541578E+000 0.000000000000000E+000
 0.477263196714215E+000 0.204401840413902E+000 0.000000000000000E+000
 0.562394794036017E+000 0.187447086349591E+000 0.000000000000000E+000
 0.625000000000000E+000 0.375000000000000E+000 0.000000000000000E+000
 0.407024191230044E+000 0.312500000000000E+000 0.000000000000000E+000
 0.474084945258901E+000 0.294963270028168E+000 0.000000000000000E+000
 0.216342369774119E+000 0.930487241414522E-001 0.000000000000000E+000
 0.157072243143605E+000 0.162201579117130E+000 0.000000000000000E+000
 0.187500000000000E+000 0.000000000000000E+000 0.000000000000000E+000
 0.174352819470591E+000 0.117036261141583E+000 0.000000000000000E+000
 0.125000000000000E+000 0.000000000000000E+000 0.000000000000000E+000
 0.218750000000000E+000 0.413079239859885E-001 0.000000000000000E+000
 0.131982343008202E+000 0.962324019836500E-001 0.000000000000000E+000
 0.866442243142230E-001 0.109366815743071E+000 0.000000000000000E+000
 0.000000000000000E+000 0.125000000000000E+000 0.000000000000000E+000
 0.156250000000000E+000 0.557461246091935E-001 0.000000000000000E+000
 0.343473007945752E+000 0.889135573360382E-001 0.000000000000000E+000
 0.316206161479800E+000 0.485604570335434E-001 0.000000000000000E+000
 0.430629647389619E+000 0.697713778434944E-001 0.000000000000000E+000
 0.391175490408355E+000 0.981202752650288E-001 0.000000000000000E+000
 0.444501950008550E+000 0.736368377006958E+000 0.000000000000000E+000
 0.398829470438439E+000 0.687500000000000E+000 0.000000000000000E+000
 0.513688817046671E+000 0.757625009132424E+000 0.000000000000000E+000
 0.625000000000000E+000 0.500000000000000E+000 0.000000000000000E+000
 0.473588841595499E+000 0.786756047776317E+000 0.000000000000000E+000
 0.478860669310979E+000 0.411527234375853E+000 0.000000000000000E+000
 0.572911532233985E+000 0.805885984489640E+000 0.000000000000000E+000
 0.447298813474571E+000 0.682006891579307E+000 0.000000000000000E+000
 0.504019394669429E+000 0.534902916754864E+000 0.000000000000000E+000
 0.486274863958833E+000 0.352843653662708E+000 0.000000000000000E+000
 0.551332894747653E+000 0.390873360445252E+000 0.000000000000000E+000
 0.433027718644055E+000 0.375926460599989E+000 0.000000000000000E+000
 0.437992666628316E+000 0.468750000000000E+000 0.000000000000000E+000
 0.421394775819071E+000 0.423093236096220E+000 0.000000000000000E+000
 0.501785840486804E+000 0.471105361968983E+000 0.000000000000000E+000
 0.433650269193003E+000 0.539110962574808E+000 0.000000000000000E+000
 0.559767288621728E+000 0.501013305633588E+000 0.000000000000000E+000
 0.473047166828055E+000 0.607447789310414E+000 0.000000000000000E+000
 0.551301338206151E+000 0.446268697831009E+000 0.000000000000000E+000
 0.625000000000000E+000 0.625000000000000E+000 0.000000000000000E+000
[...]
CELL_DATA         2368
SCALARS tdens double 1
LOOKUP_TABLE default
 0.164980335225153E-007
 0.324563084095485E-007
 0.931316521600847E-008
 0.186131427137631E-007
 0.358784074432286E-008
 0.421090214703976E-008
 0.389819646933821E-008
 0.388251223401453E-008
 0.254166552022343E-001
 0.922155302524203E-001
 0.301355183482183E-002
 0.748467775750123E-001
 0.233905886433170E+001
 0.171232418894286E-003
 0.245225496904972E+001
 0.148700171844417E-003
 0.722505732484383E-006
 0.339738178768289E-006
 0.472913830913083E-006
 0.503450367213150E-006
 0.139209515465082E-008
 0.131290082305492E-008
 0.132647441274400E-008
 0.134446207856983E-008
 0.682305897380292E-008
 0.271324747137801E-007
 0.156940064522658E-007
 0.118312923314299E-007
 0.327655849493615E-006
 0.336599484387372E-006
 0.162837889967568E-005
 0.375636780033198E-006
 0.219426855757175E-006
 0.272629738212188E-006
 0.152342377469649E-006
 0.201148245243508E-006
 0.385871833477112E-008
 0.359888118022389E-008
 0.398041807991901E-008
 0.379101312842150E-008
 0.419155321260767E-008
 0.456408586953698E-008
 0.484913217899802E-008
 0.450824585498808E-008
 0.189922567083886E-007
 0.158993595480772E-007
 0.113971595819699E-007
 0.146111731538782E-007
 0.195281975946201E-002
 0.486079817189013E-001
 0.132833870664158E-003
 0.369369942174104E-002
 0.313782145919682E-007
 0.277465415417052E-007
 0.448812207690314E-007
 0.308849157029362E-007
 0.129251575076517E-008
 0.126411122957676E-008
 0.129559200349659E-008
 0.127745710168887E-008
 0.504232994997047E-008
 0.600684818478927E-008
 0.521353445290600E-008
 0.546545320491632E-008
 0.807325450765041E-008
 0.647494113487381E-008
 0.882497264475337E-008
 0.763982487303526E-008
 0.170661756609815E-008
 0.180561406948074E-008
 0.176595188320282E-008
 0.174382865169386E-008
 0.205004114539853E-008
 0.307026228895547E-008
 0.188243904331637E-008
 0.211095984566092E-008
 0.186167783204380E-005
 0.106965765605206E-005
 0.364419646062537E-006
 0.111781103069404E-005
 0.112177374950132E-006
 0.521217992735722E-006
 0.125150614369966E-006
 0.119929643022835E-006
 0.441809357778366E-008
 0.257300093745865E-008
 0.386949957254051E-008
 0.318192488358061E-008
 0.189461505943307E-001
 0.661454286318175E-002
 0.108265002112283E-001
 0.846818195371250E-005
 0.167647655612090E-008
 0.173374046330258E-008
 0.179201081945487E-008
 0.173448147418151E-008
 0.174466751209719E+001
 0.205583947936406E+001
 0.122327024130335E+001
 0.178014802336053E-001
 0.160913083155917E-005
 0.565331725439102E-005
 0.247013932733395E+000
 0.190839043635164E-005
 0.181939279211272E-008
 0.169713305675046E-008
 0.183642693457621E-008
 0.175518191996158E-008
 0.199223621858767E-008
 0.186923836979160E-008
 0.208506008395139E-008
 0.196416620241773E-008
 0.215221240067308E-008
 0.225193927574596E-008
 0.205480551524064E-008
 0.214281574470344E-008
 0.215483964623405E-007
 0.265723128061265E-007
 0.455936949905055E-007
 0.293640787817471E-007
 0.100453467378940E-006
 0.561632605515776E-007
 0.106570051650435E-006
 0.940288539145070E-007
 0.478946230784868E-008
 0.269530460708572E-008
 0.304216406471440E-008
 0.318406174166216E-008
 0.215834300536572E-008
 0.212277113669121E-008
 0.210859572601727E-008
 0.213221866473449E-008
 0.117324709187839E-004
 0.109154429727320E-005
 0.105162370218657E-005
 0.118465968722527E-005
 0.338618591770791E-008
 0.224770677066468E-008
 0.339273735697266E-008
 0.263760391744864E-008
 0.328090489080393E-008
 0.274543735049641E-008
 0.577511241255067E-008
 0.340446039236223E-008
 0.223463463691365E-008
 0.223835652685464E-008
 0.235136504832435E-008
 0.226276090390864E-008
 0.220043903032820E-008
 0.218582100208190E-008
 0.213928463276473E-008
 0.217507127276442E-008
 0.213874679739958E-008
 0.179730525956511E-008
 0.255913154860598E-008
 0.197029563830849E-008
 0.108770190894421E-001
 0.964594826336405E-003
 0.271256542358919E-003
 0.653703883519803E-002
 0.209859714271004E-001
 0.459785021271605E-002
 0.193764260376008E-001
 0.171427752461550E-002
 0.174165213323457E-001
 0.687413292206777E-002
 0.114833553355278E-003
 0.203669144877731E-001
 0.246772214824431E-002
 0.204369487507552E-002
 0.279088550857071E-008
 0.240018642075227E-003
 0.369930423814380E+000
 0.329337351294893E+000
 0.156069954152644E-003
 0.167796484279586E+000
 0.308259588713559E-004
 0.808295646010580E-001
 0.181817458947319E-004
 0.534828898048040E-004
 0.273243338274571E-003
 0.274646135340304E-003
 0.772965184772508E-004
 0.751236094267935E-002
 0.244369482094688E-008
 0.240029102585224E-008
 0.221825909142103E-008
 0.232595314699740E-008
 0.260121044711967E-007
 0.167489336592562E-007
 0.206072348673896E-007
 0.213798893241711E-007
 0.207907112294604E-008
 0.209368406254509E-008
 0.202879700614978E-008
 0.205256404190703E-008
 0.251106742340235E-008
 0.220400247111248E-008
 0.217542024473353E-008
 0.220234957362495E-008
 0.298617399825289E-003
 0.274889303157148E-003
 0.486151392459905E-002
 0.475346024847889E-002
 0.172411189313690E-006
 0.410014216354393E-007
 0.281853110081836E-003
 0.481125291422741E-007
 0.157403732204859E-002
 0.166165987039246E+000
 0.537712125463573E-002
 0.270724805752699E-001
 0.331602129736274E-005
 0.762757235358156E-006
 0.144265210695145E-005
 0.952180476992341E-006
 0.295506200936898E-003
 0.235796937936486E-006
 0.145312775669311E-005
 0.438729375471114E-006
 0.286463455584873E-002
 0.253192873836141E-003
 0.327167995358997E-006
 0.132947981452284E-002
 0.180044003369994E+000
 0.678532745562334E-005
 0.598670560782406E+000
 0.378540871034340E+000
 0.208205545860426E-008
 0.198575963326473E-008
 0.199237435106228E-008
 0.202564797137890E-008
 0.456179592856257E-005
 0.566504432107714E-003
 0.404529758726544E+000
 0.430088498907166E-005
 0.101868474812178E-007
 0.152907854730584E-007
 0.574799873473271E-008
 0.827198007797609E-008
 0.500921168002551E-008
 0.459994385463957E-008
 0.553029963906468E-008
 0.495240972538707E-008
 0.108352370313805E-007
 0.130649970114202E-007
 0.175514948933794E-007
 0.137174389035466E-007
 0.121047545572923E-005
 0.245652321923853E-005
 0.933481181634714E-006
 0.154569418119406E-005
 0.102480696605107E-007
 0.953004761835984E-008
 0.129286408995060E-007
 0.104576916674778E-007
 0.622989382450358E-004
 0.293443653772823E+000
 0.340079130550240E-004
 0.213075005147960E-004
 0.257151675954488E-001
 0.100284939213010E-002
 0.515385848044025E-001
 0.532075875629750E-003
 0.180957869621557E-005
 0.152023945705796E-004
 0.124908706706028E-005
 0.199170088014639E-005
 0.136593403525229E-006
 0.361375911501849E-006
 0.177654261754806E-006
 0.185522758249276E-006
 0.866530872969928E-007
 0.198025388091812E-001
 0.148808238661316E-002
 0.389333432633223E-003
 0.294059256221160E-007
 0.227715376895989E-007
 0.501757581049226E-007
 0.280680298778231E-007
 0.239233308617595E-008
 0.224381495749854E-008
 0.280475855277345E-008
 0.234884681069633E-008
 0.181641742062943E-004
 0.729913207343465E-005
 0.257714781789206E-005
 0.206683810594547E-005
 0.204768244750068E-005
 0.292333251553790E-005
 0.112228266157658E-002
 0.444421006620750E-005
 0.961613538051717E-006
 0.162237104249762E-005
 0.141313753892183E-005
 0.151930194082911E-005
 0.174255052356415E-006
 0.351272439212564E-007
 0.421263762003499E-007
 0.503707427517463E-007
 0.283150019412920E-006
 0.189112259150485E-006
 0.102258718604804E-005
 0.232323017212344E-006
 0.288722347834494E-005
 0.210812506177695E-004
 0.122144402929540E+001
 0.284012220548397E-004
 0.445811116113739E-006
 0.458316919680730E-006
 0.574611088473916E-006
 0.563943584043804E-006
 0.182242876801083E-005
 0.546537522820631E-005
 0.103515522241070E-005
 0.134556935072000E-005
 0.172554762743061E-001
 0.254236971401450E-007
 0.259635743672653E-003
 0.258683957825336E-002
 0.375927554619832E-008
 0.260391412791952E-008
 0.423430000480298E-008
 0.335249359145718E-008
 0.221612580577725E-008
 0.204096577081060E-008
 0.230756783716696E-008
 0.217618740823013E-008
 0.343116040451827E-004
 0.762483320238210E-005
 0.169058326845945E+001
 0.299175630416576E-004
 0.285092924225186E-006
 0.117898473052886E-006
 0.299369648272074E-006
 0.328766011025780E-006
 0.405222362455020E-005
 0.232837760315590E-005
 0.123441277604426E+000
 0.224384333667385E-005
 0.136382325841893E-006
 0.239560677068913E-006
 0.346329128425706E-006
 0.269573333824272E-006
 0.160816377890294E-001
 0.126410492543674E-006
 0.218469241523246E-002
 0.503405877011393E-002
 0.625634423382561E-007
 0.351556169612620E-007
 0.246460323865106E-006
 0.568438293581857E-007
 0.728680488095410E-006
 0.138823036171694E-006
 0.232418566757759E-002
 0.430493133149080E-005
 0.378960050734909E-006
 0.453054705868245E-006
 0.643116186055157E-006
 0.886950609338260E-006
 0.532745036082409E-008
 0.163446295083937E-007
 0.301244134206501E-007
 0.135826685656799E-007
 0.543643766542877E-005
 0.857818725534019E-005
 0.285429581988957E+000
 0.720116863807760E-005
 0.360170615997666E-007
 0.765250580564661E-007
 0.615345490040517E-007
 0.562656971279236E-007
 0.349925609386391E-006
 0.615428788044590E-006
 0.139690236223850E-005
 0.671841436472243E-006
 0.904955588162148E-002
 0.184859872130904E+000
 0.267971694981193E+000
 0.265572861129839E-006
 0.115653841020443E-007
 0.743829608444809E-008
 0.853548678715112E-008
 0.907721803995633E-008
 0.118464877256282E-005
 0.999493396331216E-006
 0.728855829496314E-006
 0.716824260560274E-006
 0.118984541370348E-002
 0.217156141899899E+000
 0.439112760872472E+000
 0.225407786634501E+000
 0.160286052823725E-005
 0.221964009210277E-005
 0.205493945298271E+001
 0.317665690449232E-005
 0.473479700679059E-006
 0.422407398153772E-006
 0.230407949872587E-006
 0.308495102169679E-006
 0.248095484577482E-007
 0.237644797470702E-007
 0.509989097236533E-008
 0.103494992395081E-007
 0.115933137920792E+001
 0.126075908010828E-001
 0.713464621249237E-002
 0.249830009503043E-002
 0.201942734254600E-008
 0.214013993721333E-008
 0.216320962208020E-008
 0.209341464012996E-008
 0.228393896864958E-008
 0.252128239057445E-008
 0.221810275875917E-008
 0.233029127128344E-008
 0.128697416813656E-005
 0.768118422264189E-005
 0.440743665116460E-005
 0.868231649846393E-005
 0.232808396499867E-008
 0.224526379740776E-008
 0.224318749173687E-008
 0.227114246502446E-008
 0.592976203152965E-006
 0.948922495793193E-006
 0.820023547264337E-006
 0.106031911204461E-005
 0.556141636857673E-005
 0.562066616509532E+000
 0.117163292360289E-001
 0.127451601922600E-001
 0.517911012805692E+000
 0.571822455781507E+000
 0.108853623295365E-005
 0.243100214056334E+000
 0.246670988952779E-003
 0.123730917647828E-002
 0.235411007186212E-001
 0.911205933265773E-002
 0.249846059856366E-006
 0.402096629078889E-006
 0.591340869832938E-006
 0.681409275196630E-006
 0.138201912312815E-006
 0.614099903424397E-007
 0.116981472513393E-006
 0.108689598435257E-006
 0.440510832677049E-007
 0.682765172768286E-007
 0.805478191466384E-007
 0.666187559580989E-007
 0.380848517746271E-006
 0.741347351529107E-006
 0.195706637412253E-005
 0.745964443840419E-006
 0.144820768753540E-007
 0.147318211928721E-007
 0.192511567580333E-007
 0.152892670274742E-007
 0.102825814592536E-007
 0.101852763647845E-007
 0.145762391127350E-007
 0.109352234605830E-007
 0.614752514238009E-001
 0.248479728867081E-001
 0.826893287652108E-002
 0.976307382184108E-002
 0.823905824792631E-006
 0.188171135205002E-006
 0.249753723626038E-006
 0.248818414265345E-006
 0.397670747364131E-007
 0.104038355738180E-006
 0.860590275820858E-007
 0.766495450382674E-007
 0.431890884612148E-006
 0.766914200023369E-006
 0.110202454924663E-005
 0.122920849760703E-005
 0.148824138528623E+001
 0.208093851261701E-004
 0.182477564979996E+001
 0.234317223091213E+000
 0.108701279609989E+001
 0.534825025791073E+000
 0.540274521830774E-005
 0.626285070219099E+000
 0.109666624925801E-006
 0.141677900317640E-006
 0.322478750642200E-006
 0.147043543704301E-006
 0.504335569305197E-006
 0.188349027384281E-006
 0.817986475053215E-006
 0.525625535735292E-006
 0.604192287346007E-008
 0.568427281616791E-008
 0.708803711994277E-008
 0.614808390241782E-008
 0.964914334572285E-008
 0.128097122526481E-007
 0.914262354340775E-008
 0.102267242398132E-007
 0.416776371307604E-005
 0.583369758544453E+000
 0.186222741496570E-006
 0.435424018769160E-005
 0.730347288705527E-008
 0.124053737220589E-007
 0.766161968340625E-008
 0.852091378466904E-008
 0.699937031645646E-003
 0.261914426646161E-003
 0.209939234954762E-003
 0.784388741310019E-002
 0.233057820820331E-008
 0.176062412576741E-008
 0.322126362073789E-008
 0.220449074899951E-008
 0.630341922046290E-008
 0.750314464756729E-008
 0.641149641357905E-008
 0.665495282893753E-008
 0.109179869357275E-007
 0.924990204674998E-008
 0.819271089397300E-008
 0.919102945875850E-008
 0.538709256818046E-007
 0.243601154253272E-007
 0.507636889325623E-007
 0.434370579423603E-007
 0.529995053061048E-007
 0.135355769294387E-007
 0.878975334017570E-008
 0.131012921976955E-007
 0.633634381387435E-007
 0.262309764164589E-007
 0.574132335495753E-007
 0.426709574878048E-007
 0.460832201909728E-007
 0.213284313332006E-007
 0.204737869045135E-007
 0.237837141394120E-007
 0.253951741253289E-008
 0.253413260829939E-008
 0.310248338057867E-008
 0.265943333230968E-008
 0.566107893762776E-007
 0.302914229499296E-007
 0.484658443344595E-007
 0.478337812496160E-007
 0.141336214025433E-007
 0.142230643153393E-007
 0.983446039036224E-008
 0.125360983013464E-007
 0.537405966598875E-008
 0.719562184642066E-008
 0.678143164989198E-008
 0.640301422329470E-008
 0.218511312336634E-006
 0.118142072926488E-006
 0.203774440450983E-006
 0.191655614960478E-006
 0.598030542352902E-008
 0.788893042230209E-008
 0.757195927635141E-008
 0.706825082703614E-008
 0.578898221156305E-007
 0.359676540003254E-007
 0.500649427470354E-007
 0.516804845105317E-007
 0.740935014455046E-008
 0.657956331975014E-008
 0.620655820639344E-008
 0.669616583804575E-008
 0.342840113786797E-006
 0.289346535304009E-006
 0.722486853428785E-006
 0.434138243154505E-006
 0.194313390180129E-007
 0.284209999152606E-007
 0.161872842103137E-007
 0.196503579216293E-007
 0.370270877082350E-006
 0.153004841737237E-006
 0.445084569625820E-006
 0.387089944676809E-006
 0.138522338519686E-004
 0.127066326496057E-005
 0.119321212850957E+001
 0.919245297639617E-005
 0.109492501357032E-006
 0.193589861380044E-006
 0.124629333309346E-006
 0.140687715290860E-006
 0.321586171558515E-007
 0.579222285576445E-007
 0.186929258678943E-007
 0.274591190890773E-007
 0.272903536955661E-005
 0.275400314334632E+000
 0.745075197976433E+000
 0.210635349840833E+000
 0.278419435772634E-007
 0.222116390553497E-007
 0.164923669258543E-007
 0.222507233050258E-007
 0.797049031348009E-007
 0.154585687394388E-006
 0.176774015427526E-006
 0.146637392542934E-006
 0.291916990756772E-008
 0.409720822842316E-008
 0.671824943115714E-008
 0.387923377736959E-008
 0.888473744200062E-008
 0.959487416351778E-008
 0.111256630543344E-007
 0.100616460660821E-007
 0.166378261592790E-008
 0.150763414495085E-008
 0.163336136125397E-008
 0.160140718561301E-008
 0.127614607817493E-006
 0.655973726872334E-007
 0.582938177725197E-007
 0.686212500673768E-007
 0.542231201403184E-008
 0.300226988131383E-008
 0.363574737894091E-008
 0.381667469910719E-008
 0.557395111866940E-007
 0.456110380244394E-007
 0.815351943063255E-007
 0.518040221310130E-007
 0.922174056278462E-008
 0.993094114157148E-008
 0.120465750336761E-007
 0.102051087826313E-007
 0.158356922300350E-008
 0.165439300174408E-008
 0.196852378772845E-008
 0.173722147017904E-008
 0.357696163419780E-007
 0.424988424267632E-007
 0.929543866737220E-007
 0.471893417617873E-007
 0.390075912014298E-007
 0.455060957737836E-007
 0.284121361620408E-007
 0.357688123632797E-007
 0.813936430368471E-007
 0.839803773729716E-007
 0.579151595946138E-007
 0.898949400459151E-007
 0.126072546553781E-007
 0.112205925307751E-007
 0.123277953796465E-007
 0.118173566701595E-007
 0.475551794378365E-008
 0.528519643557113E-008
 0.575538119306166E-008
 0.527353254930855E-008
 0.870251728104028E-007
 0.839250662614510E-008
 0.169119537942799E-007
 0.137457498230854E-007
 0.940750776819817E-008
 0.113076628066731E-007
 0.105343942737840E-007
 0.101906374008361E-007
 0.378941569646444E-007
 0.723881142101640E-007
 0.905829911176512E-007
 0.663028419251494E-007
 0.327222456611490E-008
 0.401422893983838E-008
 0.338583210184809E-008
 0.356523683179895E-008
 0.120716036877958E-007
 0.113129102137007E-007
 0.124031336522722E-007
 0.119330602076403E-007
 0.708954458695882E-008
 0.860825206800089E-008
 0.832747102180124E-008
 0.776079488863278E-008
 0.111476027185339E-007
 0.182709520581986E-007
 0.162847314892647E-007
 0.157373299932618E-007
 0.459817309608047E-007
 0.355530195385734E-007
 0.852647194689453E-007
 0.487491235680312E-007
 0.131840959346658E-007
 0.184927521402929E-007
 0.106775699477540E-007
 0.131756659996169E-007
 0.108791634397349E-007
 0.149905606028109E-007
 0.131832220447576E-007
 0.128182231075259E-007
 0.264485025076304E-007
 0.329439018138145E-007
 0.216801785367305E-007
 0.258691912626521E-007
 0.586969851851678E-007
 0.550321550265699E-006
 0.109160344933498E-006
 0.167691181614981E-006
 0.115189723188337E+000
 0.615074422343740E-003
 0.690774947651765E-003
 0.695072488407766E-002
 0.698333349980249E-008
 0.766700443703052E-008
 0.586002977022774E-008
 0.689119452478520E-008
 0.118562877062716E-007
 0.953292203016563E-008
 0.125132300516220E-007
 0.113477421144403E-007
 0.505379920591718E-008
 0.634081413878235E-008
 0.538792085734674E-008
 0.548621780396195E-008
 0.866931507728847E-008
 0.106265029185908E-007
 0.803863663459244E-008
 0.897674335934433E-008
 0.291343912483370E-008
 0.320063871400066E-008
 0.316719382197081E-008
 0.304983077980896E-008
 0.411906016057962E-008
 0.408310541654190E-008
 0.467842966046522E-008
 0.429415007881050E-008
 0.130690555174703E+001
 0.105112179528665E+001
 0.161248649965672E-004
 0.713861667118080E+000
 0.330853801039354E-006
 0.888741848800292E-006
 0.681316093687863E-006
 0.851115779546980E-006
 0.232569859389120E-007
 0.161919553947582E-007
 0.269723734386762E-007
 0.216975121654086E-007
 0.252270010226743E-007
 0.152846344359112E-007
 0.160887363168215E-007
 0.171767650385979E-007
 0.160891648309540E-007
 0.141404636467873E-007
 0.200043514576353E-007
 0.158491162475741E-007
 0.594179808391705E-006
 0.487775764064212E-006
 0.252776904376025E-006
 0.413017334325422E-006
 0.384942048722770E-003
 0.129824725882772E-006
 0.499240902364947E-007
 0.173650974858086E-002
 0.335677112672755E-008
 0.325971714041868E-008
 0.275719522609056E-008
 0.309117345196509E-008
 0.394503908064309E-006
 0.963878017083755E-002
 0.728927561771916E-002
 0.109450520672409E-001
 0.223717888007233E-008
 0.242629914714276E-008
 0.171551864023352E-008
 0.200315088261729E-008
 0.326423922107208E-008
 0.706795026855251E-008
 0.780856958436638E-008
 0.539298662780796E-008
 0.429897661272831E-008
 0.598232862121955E-008
 0.680547361792603E-008
 0.552750083450120E-008
 0.137367606660106E-001
 0.233131896099245E-007
 0.673286076899757E-006
 0.847631813533869E-003
 0.147349619420196E-008
 0.133375184960329E-008
 0.153300303385243E-008
 0.141333135859538E-008
 0.228718047253971E-008
 0.178596125331399E-008
 0.159708041737887E-008
 0.186981205939581E-008
 0.399820473806438E-008
 0.484408456152515E-008
 0.516805413876415E-008
 0.461128515581935E-008
 0.181133503401639E-008
 0.223108833984488E-008
 0.216387587978895E-008
 0.202349147210523E-008
 0.346935911360793E-008
 0.280713390248673E-008
 0.640778064677265E-008
 0.366472520783918E-008
 0.396489780134528E-008
 0.432765724570258E-008
 0.462806675609098E-008
 0.425651211946098E-008
 0.130466665815459E-008
 0.130889700438544E-008
 0.138299898704827E-008
 0.132494138429998E-008
 0.515655437929621E-008
 0.453402487900091E-008
 0.470825850538231E-008
 0.483539935745923E-008
 0.330945384523736E-002
 0.186001090995257E-003
 0.456745917329360E-001
 0.292998857581852E-002
 0.540249403621652E-008
 0.112801950165533E-007