# vtk DataFile Version 3.0
Unstructured Grid
ASCII
DATASET UNSTRUCTURED_GRID
FIELD FieldData 1
TIME 1 1 float
  0.319931E+02
POINTS         1241 double
 0.000000000000000E+000 0.000000000000000E+000 0.000000000000000E+000
 0.100000000000000E+001 0.000000000000000E+000 0.000000000000000E+000
 0.100000000000000E+001 0.100000000000000E+001 0.000000000000000E+000
 0.000000000000000E+000 0.100000000000000E+001 0.000000000000000E+000
 0.125000000000000E+000 0.250000000000000E+000 0.000000000000000E+000
 0.375000000000000E+000 0.250000000000000E+000 0.000000000000000E+000
 0.375000000000000E+000 0.750000000000000E+000 0.000000000000000E+000
 0.125000000000000E+000 0.750000000000000E+000 0.000000000000000E+000
 0.625000000000000E+000 0.250000000000000E+000 0.000000000000000E+000
 0.875000000000000E+000 0.250000000000000E+000 0.000000000000000E+000
 0.875000000000000E+000 0.750000000000000E+000 0.000000000000000E+000
 0.625000000000000E+000 0.750000000000000E+000 0.000000000000000E+000
 0.100000000000000E+001 0.500000000000000E+000 0.000000000000000E+000
 0.000000000000000E+000 0.500000000000000E+000 0.000000000000000E+000
 0.500000000000000E+000 0.000000000000000E+000 0.000000000000000E+000
 0.125000000000000E+000 0.500000000000000E+000 0.000000000000000E+000
 0.000000000000000E+000 0.750000000000000E+000 0.000000000000000E+000
 0.000000000000000E+000 0.250000000000000E+000 0.000000000000000E+000
 0.000000000000000E+000 0.875000000000000E+000 0.000000000000000E+000
 0.308529810216860E+000 0.500255759132561E+000 0.000000000000000E+000
 0.250000000000000E+000 0.000000000000000E+000 0.000000000000000E+000
 0.125000000000000E+000 0.375000000000000E+000 0.000000000000000E+000
 0.125000000000000E+000 0.625000000000000E+000 0.000000000000000E+000
 0.000000000000000E+000 0.375000000000000E+000 0.000000000000000E+000
 0.000000000000000E+000 0.437500000000000E+000 0.000000000000000E+000
 0.625000000000000E-001 0.406250000000000E+000 0.000000000000000E+000
 0.125000000000000E+000 0.437500000000000E+000 0.000000000000000E+000
 0.216796875000000E+000 0.382812500000000E+000 0.000000000000000E+000
 0.183593750000000E+000 0.468750000000000E+000 0.000000000000000E+000
 0.375000000000000E+000 0.500000000000000E+000 0.000000000000000E+000
 0.250000000000000E+000 0.468750000000000E+000 0.000000000000000E+000
 0.625000000000000E-001 0.481770833333333E+000 0.000000000000000E+000
 0.184176834650379E+000 0.540399924344460E+000 0.000000000000000E+000
 0.216796875000000E+000 0.432195490056818E+000 0.000000000000000E+000
 0.168571309840426E+000 0.406250000000000E+000 0.000000000000000E+000
 0.125000000000000E+000 0.687500000000000E+000 0.000000000000000E+000
 0.255828208111702E+000 0.540763692652926E+000 0.000000000000000E+000
 0.375000000000000E+000 0.375000000000000E+000 0.000000000000000E+000
 0.375000000000000E+000 0.625000000000000E+000 0.000000000000000E+000
 0.220170948184400E+000 0.507406813570504E+000 0.000000000000000E+000
 0.219557967718869E+000 0.628145457476636E+000 0.000000000000000E+000
 0.125000000000000E+000 0.562500000000000E+000 0.000000000000000E+000
 0.000000000000000E+000 0.625000000000000E+000 0.000000000000000E+000
 0.375000000000000E+000 0.437500000000000E+000 0.000000000000000E+000
 0.280323303380492E+000 0.407503995028409E+000 0.000000000000000E+000
 0.375000000000000E+000 0.562500000000000E+000 0.000000000000000E+000
 0.219817452482738E+000 0.577034793653623E+000 0.000000000000000E+000
 0.885901781235304E-001 0.531250000000000E+000 0.000000000000000E+000
 0.312500000000000E+000 0.250000000000000E+000 0.000000000000000E+000
 0.297268942273640E+000 0.626076494243052E+000 0.000000000000000E+000
 0.168732375746058E+000 0.593750000000000E+000 0.000000000000000E+000
 0.173890458776596E+000 0.343750000000000E+000 0.000000000000000E+000
 0.183963193611824E+000 0.278873942859495E+000 0.000000000000000E+000
 0.250000000000000E+000 0.250000000000000E+000 0.000000000000000E+000
 0.237162500098357E+000 0.317347265649589E+000 0.000000000000000E+000
 0.250000000000000E+000 0.750000000000000E+000 0.000000000000000E+000
 0.292902283271084E+000 0.575476271929907E+000 0.000000000000000E+000
 0.125000000000000E+000 0.312500000000000E+000 0.000000000000000E+000
 0.585937500000000E-001 0.335937500000000E+000 0.000000000000000E+000
 0.000000000000000E+000 0.312500000000000E+000 0.000000000000000E+000
 0.336992576921227E+000 0.687500000000000E+000 0.000000000000000E+000
 0.312500000000000E+000 0.750000000000000E+000 0.000000000000000E+000
 0.270599706447422E+000 0.686880677247748E+000 0.000000000000000E+000
 0.500000000000000E+000 0.100000000000000E+001 0.000000000000000E+000
 0.250000000000000E+000 0.100000000000000E+001 0.000000000000000E+000
 0.375000000000000E+000 0.100000000000000E+001 0.000000000000000E+000
 0.281250000000000E+000 0.830729166666667E+000 0.000000000000000E+000
 0.343750000000000E+000 0.312500000000000E+000 0.000000000000000E+000
 0.318389033445014E+000 0.364242983277493E+000 0.000000000000000E+000
 0.267787317245899E+000 0.358095790057897E+000 0.000000000000000E+000
 0.289796410792034E+000 0.300414294603983E+000 0.000000000000000E+000
 0.274503756719177E+000 0.737152390322435E-001 0.000000000000000E+000
 0.343750000000000E+000 0.183159722222222E+000 0.000000000000000E+000
 0.246744791666667E+000 0.146267361111111E+000 0.000000000000000E+000
 0.485980902777778E+000 0.146267361111111E+000 0.000000000000000E+000
 0.302262721771688E+000 0.146267361111111E+000 0.000000000000000E+000
 0.274503756719177E+000 0.197313658770435E+000 0.000000000000000E+000
 0.375000000000000E+000 0.000000000000000E+000 0.000000000000000E+000
 0.420862160086615E+000 0.187832617434252E+000 0.000000000000000E+000
 0.384683294119816E+000 0.146267361111111E+000 0.000000000000000E+000
 0.330565923051619E+000 0.413335216176427E+000 0.000000000000000E+000
 0.352621063931298E+000 0.818811625318066E+000 0.000000000000000E+000
 0.312179705605879E+000 0.796288985503351E+000 0.000000000000000E+000
 0.500000000000000E+000 0.828697389616904E+000 0.000000000000000E+000
 0.427559261986282E+000 0.805138192500353E+000 0.000000000000000E+000
 0.399035374849065E+000 0.860999763838749E+000 0.000000000000000E+000
 0.312500000000000E+000 0.000000000000000E+000 0.000000000000000E+000
 0.187500000000000E+000 0.820606518817204E+000 0.000000000000000E+000
 0.466707069430364E+000 0.898575881689250E+000 0.000000000000000E+000
 0.511172798160702E+000 0.257526753061783E+000 0.000000000000000E+000
 0.453250172578119E+000 0.849294180402265E+000 0.000000000000000E+000
 0.937500000000000E-001 0.504496261452806E-001 0.000000000000000E+000
 0.403162177800535E+000 0.933291523780214E+000 0.000000000000000E+000
 0.437500000000000E+000 0.100000000000000E+001 0.000000000000000E+000
 0.312500000000000E+000 0.934315683855312E+000 0.000000000000000E+000
 0.453353205989905E+000 0.949647808263675E+000 0.000000000000000E+000
 0.358054120979715E+000 0.953547171775243E+000 0.000000000000000E+000
 0.325154404090345E+000 0.873991089312954E+000 0.000000000000000E+000
 0.367644435624882E+000 0.899055397729593E+000 0.000000000000000E+000
 0.236990017361111E+000 0.801449092741935E+000 0.000000000000000E+000
 0.443167922913219E+000 0.252288460541578E+000 0.000000000000000E+000
 0.477263196714215E+000 0.204401840413902E+000 0.000000000000000E+000
 0.562394794036017E+000 0.187447086349591E+000 0.000000000000000E+000
 0.625000000000000E+000 0.375000000000000E+000 0.000000000000000E+000
 0.407024191230044E+000 0.312500000000000E+000 0.000000000000000E+000
 0.474084945258901E+000 0.294963270028168E+000 0.000000000000000E+000
 0.216342369774119E+000 0.930487241414522E-001 0.000000000000000E+000
 0.157072243143605E+000 0.162201579117130E+000 0.000000000000000E+000
 0.187500000000000E+000 0.000000000000000E+000 0.000000000000000E+000
 0.174352819470591E+000 0.117036261141583E+000 0.000000000000000E+000
 0.125000000000000E+000 0.000000000000000E+000 0.000000000000000E+000
 0.218750000000000E+000 0.413079239859885E-001 0.000000000000000E+000
 0.131982343008202E+000 0.962324019836500E-001 0.000000000000000E+000
 0.866442243142230E-001 0.109366815743071E+000 0.000000000000000E+000
 0.000000000000000E+000 0.125000000000000E+000 0.000000000000000E+000
 0.156250000000000E+000 0.557461246091935E-001 0.000000000000000E+000
 0.343473007945752E+000 0.889135573360382E-001 0.000000000000000E+000
 0.316206161479800E+000 0.485604570335434E-001 0.000000000000000E+000
 0.430629647389619E+000 0.697713778434944E-001 0.000000000000000E+000
 0.391175490408355E+000 0.981202752650288E-001 0.000000000000000E+000
 0.444501950008550E+000 0.736368377006958E+000 0.000000000000000E+000
 0.398829470438439E+000 0.687500000000000E+000 0.000000000000000E+000
 0.513688817046671E+000 0.757625009132424E+000 0.000000000000000E+000
 0.625000000000000E+000 0.500000000000000E+000 0.000000000000000E+000
 0.473588841595499E+000 0.786756047776317E+000 0.000000000000000E+000
 0.478860669310979E+000 0.411527234375853E+000 0.000000000000000E+000
 0.572911532233985E+000 0.805885984489640E+000 0.000000000000000E+000
 0.447298813474571E+000 0.682006891579307E+000 0.000000000000000E+000
 0.504019394669429E+000 0.534902916754864E+000 0.000000000000000E+000
 0.486274863958833E+000 0.352843653662708E+000 0.000000000000000E+000
 0.551332894747653E+000 0.390873360445252E+000 0.000000000000000E+000
 0.433027718644055E+000 0.375926460599989E+000 0.000000000000000E+000
 0.437992666628316E+000 0.468750000000000E+000 0.000000000000000E+000
 0.421394775819071E+000 0.423093236096220E+000 0.000000000000000E+000
 0.501785840486804E+000 0.471105361968983E+000 0.000000000000000E+000
 0.433650269193003E+000 0.539110962574808E+000 0.000000000000000E+000
 0.559767288621728E+000 0.501013305633588E+000 0.000000000000000E+000
 0.473047166828055E+000 0.607447789310414E+000 0.000000000000000E+000
 0.551301338206151E+000 0.446268697831009E+000 0.000000000000000E+000
 0.625000000000000E+000 0.625000000000000E+000 0.000000000000000E+000
[...]
CELL_DATA         2368
SCALARS tdens double 1
LOOKUP_TABLE default
 0.262884920012881E-006
 0.514343493496999E-006
 0.148618043467894E-006
 0.296247950267278E-006
 0.573907801583254E-007
 0.673545432682780E-007
 0.623532205061367E-007
 0.621031449350216E-007
 0.233462914806385E-001
 0.819637722422930E-001
 0.200236399946651E-002
 0.627796065925542E-001
 0.218512125705188E+001
 0.264619775395181E-002
 0.231116683659769E+001
 0.222649556195050E-002
 0.115162351221215E-004
 0.541624488938312E-005
 0.754263129658470E-005
 0.802804965798708E-005
 0.222733641243556E-007
 0.210062610341905E-007
 0.212235282304471E-007
 0.215112952411854E-007
 0.108966220511535E-006
 0.432472791342492E-006
 0.250134264738738E-006
 0.188766447451417E-006
 0.522392061973051E-005
 0.536453759647878E-005
 0.258371865252374E-004
 0.598893127805343E-005
 0.349904708190735E-005
 0.434866137946105E-005
 0.243114011138420E-005
 0.320787372205176E-005
 0.617209479506649E-007
 0.575663774424231E-007
 0.636665088494739E-007
 0.606384225085720E-007
 0.670440115960167E-007
 0.730021881672194E-007
 0.775578956999867E-007
 0.721078727288222E-007
 0.303581413313031E-006
 0.254083696243624E-006
 0.182208421656862E-006
 0.233542756564439E-006
 0.301733035299260E-002
 0.463221795043458E-001
 0.132560669366760E-002
 0.548824536275649E-002
 0.501711137516238E-006
 0.443673561351226E-006
 0.717597569219813E-006
 0.493854161966231E-006
 0.206801604861128E-007
 0.202257628864794E-007
 0.207294285166706E-007
 0.204392725117616E-007
 0.806442369414984E-007
 0.960629677978076E-007
 0.833825908706657E-007
 0.874087693258310E-007
 0.129041564594726E-006
 0.103514748678929E-006
 0.141014073246005E-006
 0.122111982614617E-006
 0.273038610299876E-007
 0.288876048281989E-007
 0.282523148533642E-007
 0.278989097028584E-007
 0.327936245017269E-007
 0.490717022292304E-007
 0.301164565430012E-007
 0.337685032057055E-007
 0.295310446694724E-004
 0.170086715095533E-004
 0.581072314081517E-005
 0.177658782520624E-004
 0.178988557714413E-005
 0.829869732354702E-005
 0.199125234488997E-005
 0.191332177498846E-005
 0.702218571867893E-007
 0.411663239473688E-007
 0.614483254576320E-007
 0.507988211792514E-007
 0.182960558759287E-001
 0.308298050923938E-001
 0.949785532839031E-002
 0.114348700790779E-003
 0.268233694053348E-007
 0.277395133453086E-007
 0.286715073912242E-007
 0.277513438819395E-007
 0.140809390151950E+001
 0.133772892597891E+001
 0.122666112534379E+001
 0.994440407199401E-001
 0.252136708685058E-004
 0.819456709545770E-004
 0.268299591562326E+000
 0.292105659242575E-004
 0.291088448236534E-007
 0.271539668174122E-007
 0.293818553180453E-007
 0.280824147609283E-007
 0.318716629693041E-007
 0.299063835867308E-007
 0.333578151054498E-007
 0.314242483612062E-007
 0.344352749614511E-007
 0.360307326905714E-007
 0.328766612736655E-007
 0.342849242614524E-007
 0.344232462021742E-006
 0.424619369203881E-006
 0.728163204616900E-006
 0.469177410730435E-006
 0.160522749964060E-005
 0.897699179805261E-006
 0.170261335210020E-005
 0.150245261177898E-005
 0.765479415369980E-007
 0.431175736570953E-007
 0.486692308705036E-007
 0.509357394206184E-007
 0.345301682254655E-007
 0.339632374797231E-007
 0.337360108226632E-007
 0.341134663313082E-007
 0.184997187266659E-003
 0.174006729091476E-004
 0.167480437428951E-004
 0.188849157125076E-004
 0.538447323881703E-007
 0.359613451154679E-007
 0.539599191716826E-007
 0.421467884875200E-007
 0.524663845851258E-007
 0.439157292912222E-007
 0.922292533062453E-007
 0.544430381002461E-007
 0.357488979561165E-007
 0.358097679138997E-007
 0.376163486750699E-007
 0.361995986008388E-007
 0.352037040127585E-007
 0.349693949690364E-007
 0.342263818245982E-007
 0.347981507174483E-007
 0.342098040632856E-007
 0.287383696715444E-007
 0.408765177627326E-007
 0.315067824883618E-007
 0.105457511070990E-001
 0.908992577933871E-003
 0.271728121945979E-003
 0.626536433809757E-002
 0.216697168496100E-001
 0.435223610702165E-002
 0.195790781126289E-001
 0.228476020149565E-002
 0.162380091160687E-001
 0.101402166579068E-001
 0.140937319502437E-002
 0.350278518465573E-001
 0.245348995357413E-002
 0.199964192553308E-002
 0.443828285509214E-007
 0.251787410167355E-003
 0.389291105705876E+000
 0.262685422544604E+000
 0.212267567881800E-002
 0.151405865179744E+000
 0.481925864002410E-003
 0.231959524636491E+000
 0.285752894845410E-003
 0.833574488882655E-003
 0.274678014133107E-003
 0.275318085749349E-003
 0.630209729303102E-003
 0.617455249684182E-002
 0.390917204239678E-007
 0.383950513871714E-007
 0.354852971676530E-007
 0.372064839163008E-007
 0.415921010673888E-006
 0.267837631587369E-006
 0.329525240087348E-006
 0.341873408823120E-006
 0.332641443703325E-007
 0.334983812970739E-007
 0.324604006502714E-007
 0.328405065312280E-007
 0.401266985723365E-007
 0.352615953614795E-007
 0.348001410259694E-007
 0.352326070967932E-007
 0.311766195783369E-003
 0.273974550923477E-003
 0.626173047575467E-002
 0.481559915163913E-002
 0.269789683529515E-005
 0.651918811481981E-006
 0.365231298567442E-003
 0.748413643042670E-006
 0.160887815940412E-002
 0.105274801163714E+000
 0.530463092443495E-002
 0.272516800938111E-001
 0.477174709394199E-004
 0.117102730331682E-004
 0.224750603682284E-004
 0.144915393477154E-004
 0.689389086479291E-003
 0.367775582609285E-005
 0.214576135969320E-004
 0.668482337575049E-005
 0.279971176853897E-002
 0.242859342105227E-003
 0.495837921549244E-005
 0.133508004253752E-002
 0.231696388337357E+000
 0.104362948089506E-003
 0.544820080044339E+000
 0.415256571009717E+000
 0.333126430445967E-007
 0.317720622825174E-007
 0.318778608365879E-007
 0.324102356368800E-007
 0.707832647050794E-004
 0.813844311338168E-002
 0.426881359163412E+000
 0.678101397405360E-004
 0.162479162781651E-006
 0.243974218803450E-006
 0.918444010381079E-007
 0.132107908972342E-006
 0.800789653892620E-007
 0.735500737092518E-007
 0.884038871862038E-007
 0.791778278504583E-007
 0.173241898008457E-006
 0.208905610528015E-006
 0.280585150968438E-006
 0.219324733834004E-006
 0.192304060241582E-004
 0.388537902999804E-004
 0.148452612047499E-004
 0.245344887740241E-004
 0.163893160936964E-006
 0.152411772412842E-006
 0.206749159990659E-006
 0.167246701959514E-006
 0.649932182705386E-003
 0.218054311348061E+000
 0.437374296478590E-003
 0.285668462222398E-003
 0.307423055062610E-001
 0.578535605104198E-002
 0.404489362326780E-001
 0.527037111277764E-002
 0.283995450739120E-004
 0.233433206086817E-003
 0.193001251356213E-004
 0.313329419565617E-004
 0.216885968616732E-005
 0.574305429666203E-005
 0.283156360249228E-005
 0.295398426279636E-005
 0.136273678797083E-005
 0.175030813703045E-001
 0.149103520034807E-002
 0.403353806773577E-003
 0.468452758425222E-006
 0.363364178780693E-006
 0.797234916810820E-006
 0.447137442398186E-006
 0.382766400806301E-007
 0.359006211370380E-007
 0.448216101141365E-007
 0.375806837039392E-007
 0.265001575255168E-003
 0.105440382694784E-003
 0.385428689002871E-004
 0.299460404512689E-004
 0.320689073154128E-004
 0.462402551623740E-004
 0.161187008768359E-001
 0.698920609213399E-004
 0.150154769373676E-004
 0.248851287160247E-004
 0.218498182367688E-004
 0.234358420811858E-004
 0.270876111728332E-005
 0.551660596803142E-006
 0.669440009188505E-006
 0.796717349372452E-006
 0.447106741713484E-005
 0.298144381950997E-005
 0.158626286380972E-004
 0.366216462240506E-005
 0.458766361659115E-004
 0.330637843154674E-003
 0.197655314881992E+001
 0.444441645044063E-003
 0.704088853711052E-005
 0.725464761924082E-005
 0.912466674993026E-005
 0.892877641768724E-005
 0.271669530200671E-004
 0.800953492226327E-004
 0.161853379008351E-004
 0.205296624710529E-004
 0.153126449079405E-001
 0.404252970309219E-006
 0.411512356642566E-003
 0.185984461738905E-002
 0.601017147771200E-007
 0.416526838465104E-007
 0.676699599416096E-007
 0.536074600188723E-007
 0.354557946801115E-007
 0.326549901420231E-007
 0.369198791075919E-007
 0.348179824518949E-007
 0.532266059469050E-003
 0.120379187769702E-003
 0.145428611582666E+001
 0.464007595506702E-003
 0.454644488264312E-005
 0.188209900191067E-005
 0.477595322682868E-005
 0.524229646698977E-005
 0.639178315746168E-004
 0.368205305657465E-004
 0.147802344970606E+000
 0.353342573405306E-004
 0.215195684833991E-005
 0.373891719435904E-005
 0.545190311032609E-005
 0.423434483766573E-005
 0.125957470404339E-001
 0.200008863956488E-005
 0.211219650914621E-002
 0.484572851371202E-002
 0.993795302962769E-006
 0.561550132912002E-006
 0.387285765384840E-005
 0.903749330398097E-006
 0.110609720416586E-004
 0.217976588369632E-005
 0.288999743287396E-002
 0.628073412700861E-004
 0.595701406527006E-005
 0.712381172338129E-005
 0.101805189443001E-004
 0.139952196099660E-004
 0.851230481582727E-007
 0.260389246940623E-006
 0.478595097631545E-006
 0.216437687984716E-006
 0.859538370637057E-004
 0.135472122993209E-003
 0.396089043409995E+000
 0.113862731119243E-003
 0.575633077400018E-006
 0.122278694470368E-005
 0.983046841356417E-006
 0.898938718876275E-006
 0.558938227546386E-005
 0.982503648534702E-005
 0.222784406507607E-004
 0.107253366624256E-004
 0.997460725895128E-002
 0.201799652554631E+000
 0.135855225063783E+000
 0.419726191454169E-005
 0.184667219326996E-006
 0.118867675648084E-006
 0.136417557565548E-006
 0.145027786121213E-006
 0.186701361368670E-004
 0.155379534722249E-004
 0.114264193188762E-004
 0.112088694454883E-004
 0.245961306647135E-002
 0.224126506622010E+000
 0.410989269109815E+000
 0.222331912285390E+000
 0.255048063707399E-004
 0.353272180835812E-004
 0.208323184144374E+001
 0.505345909516027E-004
 0.745782619499692E-005
 0.662679743735756E-005
 0.361015911886587E-005
 0.484825138575046E-005
 0.395227371653534E-006
 0.378290672009898E-006
 0.814908864428296E-007
 0.165256995295440E-006
 0.943725795387984E+000
 0.572396174431576E-001
 0.399360823382643E-001
 0.167785638776481E-001
 0.323087653003394E-007
 0.342399924705476E-007
 0.346087600448104E-007
 0.334924172922154E-007
 0.365406238224610E-007
 0.403381740670195E-007
 0.354869372759482E-007
 0.372821591145351E-007
 0.197272869759084E-004
 0.119440911062487E-003
 0.673427858877406E-004
 0.131840653029657E-003
 0.372449382638117E-007
 0.359204266690430E-007
 0.358875802752619E-007
 0.363344291309462E-007
 0.935228981722417E-005
 0.150479249683221E-004
 0.129541579371900E-004
 0.167552761094773E-004
 0.877074148813871E-004
 0.367917050522473E+000
 0.730013326654090E-001
 0.834551954575881E-001
 0.476070943229213E+000
 0.543423823386018E+000
 0.172211969991085E-004
 0.258749327426875E+000
 0.246107967148996E-003
 0.119715698524556E-002
 0.192905585527082E-001
 0.101697071338272E-001
 0.388404722261515E-005
 0.627437971022245E-005
 0.904520367073695E-005
 0.104767061786200E-004
 0.220628860778381E-005
 0.980961604307861E-006
 0.186766432233400E-005
 0.173520710982787E-005
 0.703526573323952E-006
 0.109014917601411E-005
 0.128586806562326E-005
 0.106361752414559E-005
 0.606790892958087E-005
 0.117900096624747E-004
 0.310366737431427E-004
 0.118610693617474E-004
 0.231495340319819E-006
 0.235482435865585E-006
 0.307686391192366E-006
 0.244396449933169E-006
 0.164351462210587E-006
 0.162767434501944E-006
 0.232934807599845E-006
 0.174775009853221E-006
 0.687982417633353E-001
 0.201773371170475E-001
 0.830678955885428E-002
 0.129445612257049E-001
 0.131392402973360E-004
 0.300537684581525E-005
 0.398939766754451E-005
 0.397437006504649E-005
 0.635683097471687E-006
 0.166285311716051E-005
 0.137529868325695E-005
 0.122486234202138E-005
 0.673832448224023E-005
 0.121192899955736E-004
 0.172954811790759E-004
 0.193525847952850E-004
 0.120787272856229E+001
 0.327237522911245E-003
 0.136856775690102E+001
 0.369234448313911E+000
 0.944681646815386E+000
 0.549400796085899E+000
 0.853989834716216E-004
 0.614392755857121E+000
 0.175093207173179E-005
 0.226259994235359E-005
 0.514364472413788E-005
 0.234796238079382E-005
 0.804049903622410E-005
 0.300794110361952E-005
 0.130406849422934E-004
 0.838168965973863E-005
 0.966060931656786E-007
 0.909029201132836E-007
 0.113324351502496E-006
 0.983083994626436E-007
 0.154263821460065E-006
 0.204705696267220E-006
 0.146146594541807E-006
 0.163474541513704E-006
 0.655462748967139E-004
 0.507451534363002E+000
 0.294649568936458E-005
 0.687509948845478E-004
 0.116692660852720E-006
 0.197937282935553E-006
 0.122359927260480E-006
 0.136079629330226E-006
 0.149301367811465E-002
 0.268790389118932E-003
 0.249749138589552E-003
 0.830483937328918E-002
 0.372879668077705E-007
 0.281683591070620E-007
 0.515148102008732E-007
 0.352688166310852E-007
 0.100818485575023E-006
 0.120002894508061E-006
 0.102547169019281E-006
 0.106440694278302E-006
 0.174588350609205E-006
 0.147907524377513E-006
 0.131016785831021E-006
 0.146975361307779E-006
 0.859043212237386E-006
 0.389048071485914E-006
 0.810611398952883E-006
 0.693132245324958E-006
 0.835925025582047E-006
 0.215878366989843E-006
 0.140297885510455E-006
 0.208678860970662E-006
 0.100170610860305E-005
 0.417740263594947E-006
 0.912451454528865E-006
 0.677430761713255E-006
 0.733967591508700E-006
 0.340101621408693E-006
 0.326851816662916E-006
 0.379446371914348E-006
 0.406282132386297E-007
 0.405406655481800E-007
 0.496247629822263E-007
 0.425433595282040E-007
 0.904125702751855E-006
 0.484019537343753E-006
 0.774214095804690E-006
 0.764068454178428E-006
 0.225789423574042E-006
 0.227083533455644E-006
 0.157171079091449E-006
 0.200261477947742E-006
 0.859553042380247E-007
 0.115084378959796E-006
 0.108457802386706E-006
 0.102407640002769E-006
 0.348405111548794E-005
 0.188531303080072E-005
 0.324998568932383E-005
 0.305664518240492E-005
 0.956376920671849E-007
 0.126143201866064E-006
 0.121063410158820E-006
 0.113023456911654E-006
 0.925415294740664E-006
 0.575063777744437E-006
 0.800451786774657E-006
 0.826211909112726E-006
 0.118441200657894E-006
 0.105167659735122E-006
 0.992248048052275E-007
 0.107044171883991E-006
 0.546117756740668E-005
 0.461181147630502E-005
 0.114909415120963E-004
 0.691512124754669E-005
 0.310528061174838E-006
 0.454150505391416E-006
 0.258723111012427E-006
 0.314051735918335E-006
 0.586409963788318E-005
 0.241770469121704E-005
 0.685176561943244E-005
 0.607751924578498E-005
 0.215179971961428E-003
 0.201981635825091E-004
 0.850783129057601E+000
 0.143797681056030E-003
 0.174724800895112E-005
 0.308664753260449E-005
 0.198868976158088E-005
 0.224466230221747E-005
 0.509986002238196E-006
 0.918418144819972E-006
 0.297839715677351E-006
 0.436379566424362E-006
 0.431129484945180E-004
 0.283954827405147E+000
 0.728301114912979E+000
 0.193965173698893E+000
 0.444927187163514E-006
 0.354987413968511E-006
 0.263613788905048E-006
 0.355607404632264E-006
 0.127283624790627E-005
 0.246721624790944E-005
 0.282040227104225E-005
 0.234012445580341E-005
 0.467023107153243E-007
 0.654887759069864E-007
 0.106776378808241E-006
 0.620137397880745E-007
 0.142038263939831E-006
 0.153380508704238E-006
 0.177853391786579E-006
 0.160843738617177E-006
 0.266180814057213E-007
 0.241205954449124E-007
 0.261317632547430E-007
 0.256205127556847E-007
 0.203707361485010E-005
 0.104768279822173E-005
 0.931134531810039E-006
 0.109608325789515E-005
 0.866751805038829E-007
 0.480265976988722E-007
 0.581435135982065E-007
 0.610393952237189E-007
 0.889867016267189E-006
 0.728361000469450E-006
 0.130163255170598E-005
 0.827155803027570E-006
 0.147483904515337E-006
 0.158825376427759E-006
 0.192651512921020E-006
 0.163209603152833E-006
 0.253368889339744E-007
 0.264701203543414E-007
 0.314955974095519E-007
 0.277952056929076E-007
 0.571752881147563E-006
 0.679388951270741E-006
 0.148559422093770E-005
 0.754408998453835E-006
 0.623261354030897E-006
 0.726996251359794E-006
 0.454024911122505E-006
 0.571514790102665E-006
 0.129962673691581E-005
 0.134075941292118E-005
 0.924612910814287E-006
 0.143491728194761E-005
 0.201542033596064E-006
 0.179381785187383E-006
 0.197074085490721E-006
 0.188914992104560E-006
 0.760256035589649E-007
 0.844832016377095E-007
 0.920054333794229E-007
 0.843009026094154E-007
 0.137682757677476E-005
 0.134212040601810E-006
 0.269766009691963E-006
 0.219551532957419E-006
 0.150396770697585E-006
 0.180764001429672E-006
 0.168413048631882E-006
 0.162917064551935E-006
 0.604738889998102E-006
 0.115227569824609E-005
 0.144543705703330E-005
 0.105687731048016E-005
 0.523439128230304E-007
 0.642105969801189E-007
 0.541608648285329E-007
 0.570303727976596E-007
 0.192977888304261E-006
 0.180856927430812E-006
 0.198276629288627E-006
 0.190767207631477E-006
 0.113333559708612E-006
 0.137607039043801E-006
 0.133126752173169E-006
 0.124067592425754E-006
 0.178127387909520E-006
 0.291840975369688E-006
 0.260217842439457E-006
 0.251416267700193E-006
 0.734485603872488E-006
 0.567667658976755E-006
 0.136096367065418E-005
 0.778602478392565E-006
 0.210462425293533E-006
 0.295268751937634E-006
 0.170581730350154E-006
 0.210412579938579E-006
 0.173898809825562E-006
 0.239581692494683E-006
 0.210726471271962E-006
 0.204884089133395E-006
 0.422451273915309E-006
 0.526371650425866E-006
 0.346425282654347E-006
 0.413304922960231E-006
 0.922703601554022E-006
 0.823785152191358E-005
 0.171666318541835E-005
 0.260715673600379E-005
 0.106703368159338E+000
 0.216171998941577E-002
 0.111748753619712E-002
 0.343023668748052E-002
 0.111680954270840E-006
 0.122603701654693E-006
 0.937187996515615E-007
 0.110203137507825E-006
 0.189603218330324E-006
 0.152458678470357E-006
 0.200113238707223E-006
 0.181473272907661E-006
 0.808325690069236E-007
 0.101409204031902E-006
 0.861719779710966E-007
 0.877461694771208E-007
 0.138646646198957E-006
 0.169934337892309E-006
 0.128557467360955E-006
 0.143560421009301E-006
 0.466055641744193E-007
 0.511987091844748E-007
 0.506636390073577E-007
 0.487868005203096E-007
 0.658824082598050E-007
 0.653089433212198E-007
 0.748267045990201E-007
 0.686827863423046E-007
 0.128213487340457E+001
 0.106020211674940E+001
 0.247265579089761E-003
 0.715903176426204E+000
 0.526975278473541E-005
 0.141521826007674E-004
 0.108630350955096E-004
 0.135547169114492E-004
 0.371823392518767E-006
 0.258911295495227E-006
 0.431258379686584E-006
 0.346902696414421E-006
 0.403351709333120E-006
 0.244407067269320E-006
 0.257273637925116E-006
 0.274674460110565E-006
 0.257272404763164E-006
 0.226118348417617E-006
 0.319848835409202E-006
 0.253435624418120E-006
 0.947394303951338E-005
 0.778414694253839E-005
 0.403502311304256E-005
 0.658947729808476E-005
 0.932173802843781E-003
 0.199482747839729E-005
 0.791712279214361E-006
 0.135340083486648E-002
 0.536855005008082E-007
 0.521348092592511E-007
 0.441058824345209E-007
 0.494428545439795E-007
 0.621351358082966E-005
 0.298134745272311E-001
 0.716718912752866E-002
 0.111827654768541E-001
 0.357941458502347E-007
 0.388202899073159E-007
 0.274479004126633E-007
 0.320499696565886E-007
 0.522191738244832E-007
 0.112919142877170E-006
 0.124508921808169E-006
 0.861926172063891E-007
 0.687286731745565E-007
 0.955744985185705E-007
 0.108715283834826E-006
 0.883316655598669E-007
 0.120854160050839E-001
 0.370252798476431E-006
 0.100942705157662E-004
 0.823589502780978E-003
 0.235747464406665E-007
 0.213395835212911E-007
 0.245263262258066E-007
 0.226124358291047E-007
 0.365923370984361E-007
 0.285728253181124E-007
 0.255528323936569E-007
 0.299154512998245E-007
 0.639281037088171E-007
 0.774348378779937E-007
 0.825970212487101E-007
 0.737148143367451E-007
 0.289808868873262E-007
 0.356948239353685E-007
 0.346202910927820E-007
 0.323747313019553E-007
 0.555014433851884E-007
 0.449119471567621E-007
 0.102428171317231E-006
 0.586227743952805E-007
 0.633975167031201E-007
 0.691924102514153E-007
 0.739884533692782E-007
 0.680546562743987E-007
 0.208740999085816E-007
 0.209420259696364E-007
 0.221271196791276E-007
 0.211984543984844E-007
 0.824528064493434E-007
 0.725032039561552E-007
 0.752922827227697E-007
 0.773201735714336E-007
 0.321617449217220E-002
 0.198305583370729E-003
 0.408563106255390E-001
 0.307503333809182E-002
 0.863444979378290E-007
 0.179265950753405E-006