# vtk DataFile Version 3.0
Unstructured Grid
ASCII
DATASET UNSTRUCTURED_GRID
FIELD FieldData 1
TIME 1 1 float
  0.251042E+02
POINTS         1241 double
 0.000000000000000E+000 0.000000000000000E+000 0.000000000000000E+000
 0.100000000000000E+001 0.000000000000000E+000 0.000000000000000E+000
 0.100000000000000E+001 0.100000000000000E+001 0.000000000000000E+000
 0.000000000000000E+000 0.100000000000000E+001 0.000000000000000E+000
 0.125000000000000E+000 0.250000000000000E+000 0.000000000000000E+000
 0.375000000000000E+000 0.250000000000000E+000 0.000000000000000E+000
 0.375000000000000E+000 0.750000000000000E+000 0.000000000000000E+000
 0.125000000000000E+000 0.750000000000000E+000 0.000000000000000E+000
 0.625000000000000E+000 0.250000000000000E+000 0.000000000000000E+000
 0.875000000000000E+000 0.250000000000000E+000 0.000000000000000E+000
 0.875000000000000E+000 0.750000000000000E+000 0.000000000000000E+000
 0.625000000000000E+000 0.750000000000000E+000 0.000000000000000E+000
 0.100000000000000E+001 0.500000000000000E+000 0.000000000000000E+000
 0.000000000000000E+000 0.500000000000000E+000 0.000000000000000E+000
 0.500000000000000E+000 0.000000000000000E+000 0.000000000000000E+000
 0.125000000000000E+000 0.500000000000000E+000 0.000000000000000E+000
 0.000000000000000E+000 0.750000000000000E+000 0.000000000000000E+000
 0.000000000000000E+000 0.250000000000000E+000 0.000000000000000E+000
 0.000000000000000E+000 0.875000000000000E+000 0.000000000000000E+000
 0.308529810216860E+000 0.500255759132561E+000 0.000000000000000E+000
 0.250000000000000E+000 0.000000000000000E+000 0.000000000000000E+000
 0.125000000000000E+000 0.375000000000000E+000 0.000000000000000E+000
 0.125000000000000E+000 0.625000000000000E+000 0.000000000000000E+000
 0.000000000000000E+000 0.375000000000000E+000 0.000000000000000E+000
 0.000000000000000E+000 0.437500000000000E+000 0.000000000000000E+000
 0.625000000000000E-001 0.406250000000000E+000 0.000000000000000E+000
 0.125000000000000E+000 0.437500000000000E+000 0.000000000000000E+000
 0.216796875000000E+000 0.382812500000000E+000 0.000000000000000E+000
 0.183593750000000E+000 0.468750000000000E+000 0.000000000000000E+000
 0.375000000000000E+000 0.500000000000000E+000 0.000000000000000E+000
 0.250000000000000E+000 0.468750000000000E+000 0.000000000000000E+000
 0.625000000000000E-001 0.481770833333333E+000 0.000000000000000E+000
 0.184176834650379E+000 0.540399924344460E+000 0.000000000000000E+000
 0.216796875000000E+000 0.432195490056818E+000 0.000000000000000E+000
 0.168571309840426E+000 0.406250000000000E+000 0.000000000000000E+000
 0.125000000000000E+000 0.687500000000000E+000 0.000000000000000E+000
 0.255828208111702E+000 0.540763692652926E+000 0.000000000000000E+000
 0.375000000000000E+000 0.375000000000000E+000 0.000000000000000E+000
 0.375000000000000E+000 0.625000000000000E+000 0.000000000000000E+000
 0.220170948184400E+000 0.507406813570504E+000 0.000000000000000E+000
 0.219557967718869E+000 0.628145457476636E+000 0.000000000000000E+000
 0.125000000000000E+000 0.562500000000000E+000 0.000000000000000E+000
 0.000000000000000E+000 0.625000000000000E+000 0.000000000000000E+000
 0.375000000000000E+000 0.437500000000000E+000 0.000000000000000E+000
 0.280323303380492E+000 0.407503995028409E+000 0.000000000000000E+000
 0.375000000000000E+000 0.562500000000000E+000 0.000000000000000E+000
 0.219817452482738E+000 0.577034793653623E+000 0.000000000000000E+000
 0.885901781235304E-001 0.531250000000000E+000 0.000000000000000E+000
 0.312500000000000E+000 0.250000000000000E+000 0.000000000000000E+000
 0.297268942273640E+000 0.626076494243052E+000 0.000000000000000E+000
 0.168732375746058E+000 0.593750000000000E+000 0.000000000000000E+000
 0.173890458776596E+000 0.343750000000000E+000 0.000000000000000E+000
 0.183963193611824E+000 0.278873942859495E+000 0.000000000000000E+000
 0.250000000000000E+000 0.250000000000000E+000 0.000000000000000E+000
 0.237162500098357E+000 0.317347265649589E+000 0.000000000000000E+000
 0.250000000000000E+000 0.750000000000000E+000 0.000000000000000E+000
 0.292902283271084E+000 0.575476271929907E+000 0.000000000000000E+000
 0.125000000000000E+000 0.312500000000000E+000 0.000000000000000E+000
 0.585937500000000E-001 0.335937500000000E+000 0.000000000000000E+000
 0.000000000000000E+000 0.312500000000000E+000 0.000000000000000E+000
 0.336992576921227E+000 0.687500000000000E+000 0.000000000000000E+000
 0.312500000000000E+000 0.750000000000000E+000 0.000000000000000E+000
 0.270599706447422E+000 0.686880677247748E+000 0.000000000000000E+000
 0.500000000000000E+000 0.100000000000000E+001 0.000000000000000E+000
 0.250000000000000E+000 0.100000000000000E+001 0.000000000000000E+000
 0.375000000000000E+000 0.100000000000000E+001 0.000000000000000E+000
 0.281250000000000E+000 0.830729166666667E+000 0.000000000000000E+000
 0.343750000000000E+000 0.312500000000000E+000 0.000000000000000E+000
 0.318389033445014E+000 0.364242983277493E+000 0.000000000000000E+000
 0.267787317245899E+000 0.358095790057897E+000 0.000000000000000E+000
 0.289796410792034E+000 0.300414294603983E+000 0.000000000000000E+000
 0.274503756719177E+000 0.737152390322435E-001 0.000000000000000E+000
 0.343750000000000E+000 0.183159722222222E+000 0.000000000000000E+000
 0.246744791666667E+000 0.146267361111111E+000 0.000000000000000E+000
 0.485980902777778E+000 0.146267361111111E+000 0.000000000000000E+000
 0.302262721771688E+000 0.146267361111111E+000 0.000000000000000E+000
 0.274503756719177E+000 0.197313658770435E+000 0.000000000000000E+000
 0.375000000000000E+000 0.000000000000000E+000 0.000000000000000E+000
 0.420862160086615E+000 0.187832617434252E+000 0.000000000000000E+000
 0.384683294119816E+000 0.146267361111111E+000 0.000000000000000E+000
 0.330565923051619E+000 0.413335216176427E+000 0.000000000000000E+000
 0.352621063931298E+000 0.818811625318066E+000 0.000000000000000E+000
 0.312179705605879E+000 0.796288985503351E+000 0.000000000000000E+000
 0.500000000000000E+000 0.828697389616904E+000 0.000000000000000E+000
 0.427559261986282E+000 0.805138192500353E+000 0.000000000000000E+000
 0.399035374849065E+000 0.860999763838749E+000 0.000000000000000E+000
 0.312500000000000E+000 0.000000000000000E+000 0.000000000000000E+000
 0.187500000000000E+000 0.820606518817204E+000 0.000000000000000E+000
 0.466707069430364E+000 0.898575881689250E+000 0.000000000000000E+000
 0.511172798160702E+000 0.257526753061783E+000 0.000000000000000E+000
 0.453250172578119E+000 0.849294180402265E+000 0.000000000000000E+000
 0.937500000000000E-001 0.504496261452806E-001 0.000000000000000E+000
 0.403162177800535E+000 0.933291523780214E+000 0.000000000000000E+000
 0.437500000000000E+000 0.100000000000000E+001 0.000000000000000E+000
 0.312500000000000E+000 0.934315683855312E+000 0.000000000000000E+000
 0.453353205989905E+000 0.949647808263675E+000 0.000000000000000E+000
 0.358054120979715E+000 0.953547171775243E+000 0.000000000000000E+000
 0.325154404090345E+000 0.873991089312954E+000 0.000000000000000E+000
 0.367644435624882E+000 0.899055397729593E+000 0.000000000000000E+000
 0.236990017361111E+000 0.801449092741935E+000 0.000000000000000E+000
 0.443167922913219E+000 0.252288460541578E+000 0.000000000000000E+000
 0.477263196714215E+000 0.204401840413902E+000 0.000000000000000E+000
 0.562394794036017E+000 0.187447086349591E+000 0.000000000000000E+000
 0.625000000000000E+000 0.375000000000000E+000 0.000000000000000E+000
 0.407024191230044E+000 0.312500000000000E+000 0.000000000000000E+000
 0.474084945258901E+000 0.294963270028168E+000 0.000000000000000E+000
 0.216342369774119E+000 0.930487241414522E-001 0.000000000000000E+000
 0.157072243143605E+000 0.162201579117130E+000 0.000000000000000E+000
 0.187500000000000E+000 0.000000000000000E+000 0.000000000000000E+000
 0.174352819470591E+000 0.117036261141583E+000 0.000000000000000E+000
 0.125000000000000E+000 0.000000000000000E+000 0.000000000000000E+000
 0.218750000000000E+000 0.413079239859885E-001 0.000000000000000E+000
 0.131982343008202E+000 0.962324019836500E-001 0.000000000000000E+000
 0.866442243142230E-001 0.109366815743071E+000 0.000000000000000E+000
 0.000000000000000E+000 0.125000000000000E+000 0.000000000000000E+000
 0.156250000000000E+000 0.557461246091935E-001 0.000000000000000E+000
 0.343473007945752E+000 0.889135573360382E-001 0.000000000000000E+000
 0.316206161479800E+000 0.485604570335434E-001 0.000000000000000E+000
 0.430629647389619E+000 0.697713778434944E-001 0.000000000000000E+000
 0.391175490408355E+000 0.981202752650288E-001 0.000000000000000E+000
 0.444501950008550E+000 0.736368377006958E+000 0.000000000000000E+000
 0.398829470438439E+000 0.687500000000000E+000 0.000000000000000E+000
 0.513688817046671E+000 0.757625009132424E+000 0.000000000000000E+000
 0.625000000000000E+000 0.500000000000000E+000 0.000000000000000E+000
 0.473588841595499E+000 0.786756047776317E+000 0.000000000000000E+000
 0.478860669310979E+000 0.411527234375853E+000 0.000000000000000E+000
 0.572911532233985E+000 0.805885984489640E+000 0.000000000000000E+000
 0.447298813474571E+000 0.682006891579307E+000 0.000000000000000E+000
 0.504019394669429E+000 0.534902916754864E+000 0.000000000000000E+000
 0.486274863958833E+000 0.352843653662708E+000 0.000000000000000E+000
 0.551332894747653E+000 0.390873360445252E+000 0.000000000000000E+000
 0.433027718644055E+000 0.375926460599989E+000 0.000000000000000E+000
 0.437992666628316E+000 0.468750000000000E+000 0.000000000000000E+000
 0.421394775819071E+000 0.423093236096220E+000 0.000000000000000E+000
 0.501785840486804E+000 0.471105361968983E+000 0.000000000000000E+000
 0.433650269193003E+000 0.539110962574808E+000 0.000000000000000E+000
 0.559767288621728E+000 0.501013305633588E+000 0.000000000000000E+000
 0.473047166828055E+000 0.607447789310414E+000 0.000000000000000E+000
 0.551301338206151E+000 0.446268697831009E+000 0.000000000000000E+000
 0.625000000000000E+000 0.625000000000000E+000 0.000000000000000E+000
[...]
CELL_DATA         2368
SCALARS tdens double 1
LOOKUP_TABLE default
 0.376549581192950E-004
 0.662404176086822E-004
 0.218056277816489E-004
 0.414287348047379E-004
 0.882493978392612E-005
 0.103487365117185E-004
 0.958202488372347E-005
 0.954591340630970E-005
 0.185390270422315E-001
 0.473784320464530E-001
 0.608256214745905E-002
 0.278770391711600E-001
 0.912721839793212E+000
 0.177039617912586E+000
 0.551406835052720E+000
 0.849782247933046E-001
 0.166503128654071E-002
 0.782448567018326E-003
 0.110416441594308E-002
 0.116922271551386E-002
 0.344180060588753E-005
 0.324596854306404E-005
 0.327988598428194E-005
 0.332422969378172E-005
 0.157176113363881E-004
 0.568124930757809E-004
 0.336983945609435E-004
 0.260788434398990E-004
 0.736612384737186E-003
 0.756932259781572E-003
 0.326134369115111E-002
 0.847550876555939E-003
 0.500184663842096E-003
 0.629075697153640E-003
 0.354994097021700E-003
 0.460924448180031E-003
 0.948493076527368E-005
 0.885096466313733E-005
 0.978087669809577E-005
 0.931979662879998E-005
 0.102981296958593E-004
 0.112114702618025E-004
 0.119007035591052E-004
 0.110708834967973E-004
 0.460390628726167E-004
 0.383866289756003E-004
 0.277270622955651E-004
 0.354014628418455E-004
 0.468616914343347E-001
 0.302334638925039E-001
 0.174500971150148E-001
 0.380320364112930E-001
 0.765773741748338E-004
 0.678063721023002E-004
 0.109495250867936E-003
 0.754654749792533E-004
 0.319579143195727E-005
 0.312582688609216E-005
 0.320358256162151E-005
 0.315874151721547E-005
 0.123681361520617E-004
 0.147126854782543E-004
 0.127888779447170E-004
 0.133981298732634E-004
 0.195631539151062E-004
 0.157508839642821E-004
 0.212491186772869E-004
 0.185057196628296E-004
 0.421232105133828E-005
 0.445649029690103E-005
 0.435544239522045E-005
 0.430304074075752E-005
 0.501802614578730E-005
 0.730136478269476E-005
 0.463109282250449E-005
 0.516628677978064E-005
 0.366587648323720E-002
 0.218805380416595E-002
 0.817334491157781E-003
 0.227929102065171E-002
 0.261794861284743E-003
 0.115476679040227E-002
 0.279944136757864E-003
 0.279693331163615E-003
 0.992414555169978E-005
 0.635207688209209E-005
 0.844032688352747E-005
 0.754750143718114E-005
 0.192504343158836E-001
 0.597977398262564E-001
 0.888687255903709E-002
 0.316777804766437E-002
 0.414429679313370E-005
 0.428468629570397E-005
 0.442901259694451E-005
 0.428726581588483E-005
 0.587089363412775E+000
 0.614407977501814E+000
 0.115966523268304E+001
 0.232740058377715E+000
 0.301541078449570E-002
 0.551233245017902E-002
 0.226444301639115E+000
 0.299292642059735E-002
 0.449372122333283E-005
 0.419592360085611E-005
 0.453767180371189E-005
 0.433835698778607E-005
 0.489475076618069E-005
 0.460757390604031E-005
 0.513057823000203E-005
 0.483624750440128E-005
 0.531720207067124E-005
 0.556268115608805E-005
 0.507598799067957E-005
 0.529409654861431E-005
 0.516587958881115E-004
 0.640274690807833E-004
 0.108599368387161E-003
 0.706032406285485E-004
 0.241127012653591E-003
 0.135716181364561E-003
 0.254799234564870E-003
 0.225469184369217E-003
 0.114518996203435E-004
 0.662394564906330E-005
 0.747627066394592E-005
 0.780394018430216E-005
 0.532245117399309E-005
 0.524246621203145E-005
 0.520677171387643E-005
 0.526279486158007E-005
 0.195888235193816E-001
 0.244574896032280E-002
 0.231443280527876E-002
 0.265512435294272E-002
 0.756585128312000E-005
 0.554961863727651E-005
 0.756851498378337E-005
 0.639456850569014E-005
 0.795393321436874E-005
 0.672734169484945E-005
 0.134440521560475E-004
 0.826083943089920E-005
 0.550325275610688E-005
 0.551719267555783E-005
 0.578848825533498E-005
 0.557468679580302E-005
 0.542618484556952E-005
 0.538867318899735E-005
 0.527994580279697E-005
 0.536494171876205E-005
 0.525442416056722E-005
 0.441734051037099E-005
 0.611154269634551E-005
 0.482346340523762E-005
 0.414444380048255E-002
 0.463381292308665E-003
 0.291772682933492E-003
 0.415137368823398E-002
 0.211284318642965E-001
 0.405913028569321E-002
 0.195708181909038E-001
 0.389492863069123E-002
 0.124933477258367E-001
 0.230666336894488E-001
 0.322513789096876E-001
 0.742744857464043E-001
 0.257840995934132E-002
 0.109820002731851E-002
 0.652023772117975E-005
 0.570076690513152E-003
 0.292573867043006E+000
 0.114073074777878E+000
 0.672570083442062E-001
 0.719496714814419E-001
 0.472904291296323E-001
 0.293179189504196E+000
 0.315368245871148E-001
 0.802017382558210E-001
 0.292194764088503E-003
 0.289965685788684E-003
 0.348243976665555E-002
 0.456164065129477E-002
 0.600680157987471E-005
 0.588290881624434E-005
 0.545737118943819E-005
 0.571300358564164E-005
 0.633989626563343E-004
 0.409267130405595E-004
 0.503054474937003E-004
 0.521719550616357E-004
 0.513636795567175E-005
 0.517289760609401E-005
 0.501536465618458E-005
 0.507289668708787E-005
 0.606971392337108E-005
 0.543839541619727E-005
 0.535517584858769E-005
 0.542712335702390E-005
 0.377466204102068E-003
 0.294361088036318E-003
 0.642945230324412E-002
 0.490359465888666E-002
 0.252652521005587E-003
 0.844000223477999E-004
 0.406776902098663E-002
 0.863285764009082E-004
 0.210818175005741E-002
 0.386592474863072E-001
 0.469730953254327E-002
 0.227940384468421E-001
 0.224931240467645E-002
 0.117355498679403E-002
 0.276525771755932E-002
 0.132554740723712E-002
 0.716277000749156E-002
 0.321511246950833E-003
 0.650767423518810E-003
 0.364940268208647E-003
 0.280016984301126E-002
 0.308431809571463E-003
 0.358214783311144E-003
 0.157259322015338E-002
 0.267901769155583E+000
 0.989364530916573E-002
 0.371678037459081E+000
 0.481548368873072E+000
 0.514516621555477E-005
 0.490682422549395E-005
 0.492572855820263E-005
 0.500685119129868E-005
 0.775001907635660E-002
 0.142190592688604E+000
 0.471206222117284E+000
 0.813843783567454E-002
 0.237432248153438E-004
 0.353343700986580E-004
 0.136315524084141E-004
 0.195905348118044E-004
 0.121670748638417E-004
 0.112176901766255E-004
 0.134204030469138E-004
 0.120529547188673E-004
 0.264088487610806E-004
 0.318748303717286E-004
 0.426447990895078E-004
 0.334283902905552E-004
 0.257367733627406E-002
 0.473019703260783E-002
 0.200441624303953E-002
 0.320687529962813E-002
 0.250946388560806E-004
 0.233440262432002E-004
 0.316146324428599E-004
 0.256117315508495E-004
 0.723453881306956E-002
 0.655132799269014E-001
 0.129510006115200E-001
 0.121851566711254E-001
 0.348523949500005E-001
 0.304947233818203E-001
 0.272923173595160E-001
 0.235730978448636E-001
 0.315427696384134E-002
 0.171054634020394E-001
 0.186308240505435E-002
 0.357098226733362E-002
 0.303852460937253E-003
 0.797561147213764E-003
 0.407773321949344E-003
 0.422690447568448E-003
 0.177927296209937E-003
 0.133560067610723E-001
 0.206492626079869E-002
 0.986459569459482E-003
 0.620464867586169E-004
 0.515986431094096E-004
 0.104084757787469E-003
 0.605645774608148E-004
 0.590790315729730E-005
 0.554173946757016E-005
 0.676560999958342E-005
 0.579990877997666E-005
 0.119425315379466E-001
 0.358895530601217E-002
 0.240831809787662E-002
 0.135087976605988E-002
 0.397935130270955E-002
 0.598034263174060E-002
 0.279730061202196E+000
 0.818848083401745E-002
 0.180317476344133E-002
 0.239988831042079E-002
 0.251567426389560E-002
 0.257918843618938E-002
 0.284488067747358E-003
 0.644463578337472E-004
 0.919787668061906E-004
 0.103511322109965E-003
 0.584201692021210E-003
 0.368640954705112E-003
 0.179671583191771E-002
 0.473364697197450E-003
 0.640229433232180E-002
 0.371461863929032E-001
 0.275975118096492E+001
 0.485454656227048E-001
 0.854075522638506E-003
 0.928235867287652E-003
 0.119684359991730E-002
 0.113821835679055E-002
 0.197164387307547E-002
 0.570520750199957E-002
 0.191056390478977E-002
 0.204227336684785E-002
 0.659504118976636E-002
 0.528113782878905E-004
 0.174057381402835E-002
 0.160408586321347E-002
 0.907154500470594E-005
 0.639166934172464E-005
 0.102534217365699E-004
 0.816123064021657E-005
 0.546539455281589E-005
 0.503979229954300E-005
 0.569916222748509E-005
 0.537168803834113E-005
 0.421191389625992E-001
 0.140188599323374E-001
 0.711950397711282E+000
 0.386403471726132E-001
 0.652969480394986E-003
 0.277348100504334E-003
 0.693250898517099E-003
 0.752224636942715E-003
 0.684928919072700E-002
 0.406569573142591E-002
 0.157793823635210E+000
 0.394611816804708E-002
 0.255830052531276E-003
 0.419972103088430E-003
 0.665705069134155E-003
 0.498708958032467E-003
 0.110476679384145E-001
 0.253193426108247E-003
 0.187056602007213E-002
 0.394393739172398E-002
 0.129504098020442E-003
 0.828000715857421E-004
 0.405179304136660E-003
 0.120716433621273E-003
 0.108556536554120E-002
 0.255404840600511E-003
 0.752080755072339E-002
 0.412763078789550E-002
 0.760379674787142E-003
 0.920543681767586E-003
 0.139386947989421E-002
 0.183710471304819E-002
 0.126211517116182E-004
 0.348727207467418E-004
 0.618809931172518E-004
 0.296426485079072E-004
 0.106389423645627E-001
 0.165113244848103E-001
 0.453315453276103E+000
 0.142863221807479E-001
 0.870122275547072E-004
 0.184053275613264E-003
 0.147300338951311E-003
 0.134940697020101E-003
 0.830468279154819E-003
 0.143506763381093E-002
 0.318192479541221E-002
 0.156831644707985E-002
 0.818210546281072E-002
 0.248883395307950E+000
 0.454550809056019E-001
 0.466178040422798E-003
 0.274805330291475E-004
 0.179500023629601E-004
 0.206503969980205E-004
 0.218207726423254E-004
 0.218478909980090E-002
 0.157764036815681E-002
 0.125741341511028E-002
 0.122311437228051E-002
 0.888650128401449E-002
 0.169845344983545E+000
 0.240231471913504E+000
 0.159561812254236E+000
 0.344939422258890E-002
 0.494725883261413E-002
 0.200164324012970E+001
 0.679429849485659E-002
 0.904987213102313E-003
 0.742433059678496E-003
 0.392518217606308E-003
 0.552595596565121E-003
 0.555273445989229E-004
 0.527913407018023E-004
 0.121985719345519E-004
 0.242963419528261E-004
 0.422919240113126E+000
 0.183689672153903E+000
 0.543461144626535E-001
 0.960924332945384E-001
 0.498658792664628E-005
 0.528578585720454E-005
 0.533901246850678E-005
 0.516916458201486E-005
 0.564202616716180E-005
 0.622261053146716E-005
 0.547398781031233E-005
 0.575285768975944E-005
 0.179503263437798E-002
 0.106897030377398E-001
 0.563602116776442E-002
 0.958941337049343E-002
 0.573619466576529E-005
 0.553490095835639E-005
 0.553181984583829E-005
 0.559854190111630E-005
 0.110913859218419E-002
 0.184969912370246E-002
 0.156650183765291E-002
 0.198151973782055E-002
 0.918866714315602E-002
 0.107761977194192E+000
 0.912141965771832E-001
 0.133567173379795E+000
 0.279112301812070E+000
 0.288238417231897E+000
 0.226622452710276E-002
 0.219395074688664E+000
 0.258200528075000E-003
 0.514307747110515E-003
 0.489405946787631E-002
 0.932788393368817E-002
 0.384383406872684E-003
 0.663824952546475E-003
 0.781864755025962E-003
 0.914735497198412E-003
 0.321963170688572E-003
 0.145818040637625E-003
 0.274321447178340E-003
 0.254317528466483E-003
 0.104509956275113E-003
 0.160635488049677E-003
 0.189365787625259E-003
 0.156787045006469E-003
 0.853551810322059E-003
 0.160761347853623E-002
 0.389928088354554E-002
 0.159937850526355E-002
 0.350542011669761E-004
 0.356483564647286E-004
 0.464205140514402E-004
 0.369931442895593E-004
 0.249103193638576E-004
 0.246176326565238E-004
 0.351701184235457E-004
 0.264748771302915E-004
 0.610805630900298E-001
 0.714503909304364E-002
 0.844567758983728E-002
 0.143524958049633E-001
 0.190259197624303E-002
 0.448317293580326E-003
 0.595072864362037E-003
 0.593491431909376E-003
 0.964331189336798E-004
 0.251330143798796E-003
 0.207519845869410E-003
 0.184573767336827E-003
 0.808407786880994E-003
 0.164082940841244E-002
 0.223636246723293E-002
 0.253487653277278E-002
 0.784456168684344E+000
 0.366783534901513E-001
 0.691686790144586E+000
 0.409664515740270E+000
 0.711028346540329E+000
 0.517796950419527E+000
 0.104947737768585E-001
 0.509818673780329E+000
 0.259078957014671E-003
 0.336905586873241E-003
 0.746482456866724E-003
 0.348338438374831E-003
 0.115998729775994E-002
 0.448179705997632E-003
 0.188199155821893E-002
 0.121454111742149E-002
 0.147390151600286E-004
 0.139127010552132E-004
 0.172662532694266E-004
 0.150128165828442E-004
 0.234801993248588E-004
 0.309220161778746E-004
 0.221931289943052E-004
 0.248200954478739E-004
 0.716720403770638E-002
 0.287226217987739E+000
 0.383759989043125E-003
 0.780222123405733E-002
 0.175562487093346E-004
 0.290499787814417E-004
 0.182288187048331E-004
 0.202933290113684E-004
 0.100249088557954E-001
 0.268864021013316E-003
 0.824229536923639E-003
 0.978991791893869E-002
 0.575081170938690E-005
 0.434387140887965E-005
 0.789964119630202E-005
 0.543500726011247E-005
 0.154721183877570E-004
 0.184022420964720E-004
 0.157362893779992E-004
 0.163331947673011E-004
 0.266769559965298E-004
 0.225848346005221E-004
 0.200451577110673E-004
 0.224678788897518E-004
 0.125257873588226E-003
 0.581472140993617E-004
 0.120599483595046E-003
 0.102024720178916E-003
 0.975672785312275E-004
 0.309360393777421E-004
 0.205952431220429E-004
 0.293522391031983E-004
 0.124953825986174E-003
 0.594685385466038E-004
 0.126704233823771E-003
 0.916302896540037E-004
 0.104971429563634E-003
 0.495011987968082E-004
 0.485257587154230E-004
 0.557708916785558E-004
 0.626384554244953E-005
 0.624531742817012E-005
 0.761373405479804E-005
 0.654679477541936E-005
 0.133806546766180E-003
 0.725263663867739E-004
 0.115111355212020E-003
 0.113525761489172E-003
 0.339210112056376E-004
 0.337621369451702E-004
 0.237746794528341E-004
 0.300622194589108E-004
 0.131930418715088E-004
 0.176445405526609E-004
 0.166232661309604E-004
 0.157017952678675E-004
 0.494188955398281E-003
 0.273415094179415E-003
 0.462913966968489E-003
 0.436072331592377E-003
 0.146388928649900E-004
 0.192579610555844E-004
 0.184513330222228E-004
 0.172633418052840E-004
 0.140724223344709E-003
 0.876916266583065E-004
 0.122061415708225E-003
 0.125795644707585E-003
 0.179892177238287E-004
 0.159443458960235E-004
 0.150991539984417E-004
 0.162670140223199E-004
 0.752806616538319E-003
 0.643624700500807E-003
 0.150323024702532E-002
 0.948544385116430E-003
 0.468187272616024E-004
 0.682075597201503E-004
 0.391042170269163E-004
 0.473932386716072E-004
 0.795016533222692E-003
 0.325430771979344E-003
 0.753033485384366E-003
 0.763847872936556E-003
 0.177775217872533E-001
 0.272772738656237E-002
 0.330581220042945E+000
 0.138324467956916E-001
 0.253703291407636E-003
 0.439119476164391E-003
 0.289464975857819E-003
 0.324960861406249E-003
 0.698055073310998E-004
 0.127314681362021E-003
 0.433888620769432E-004
 0.616446755412257E-004
 0.463379562508702E-002
 0.100033288245892E+000
 0.115186290628323E+000
 0.555057984752162E-001
 0.668751462125042E-004
 0.534793602798850E-004
 0.398662271128093E-004
 0.535725333455854E-004
 0.187432204041131E-003
 0.357110533285767E-003
 0.404898879577634E-003
 0.338290381713844E-003
 0.719379105723086E-005
 0.995811489239320E-005
 0.154010927897253E-004
 0.947060751027821E-005
 0.215983400406392E-004
 0.232948873172998E-004
 0.269972658041303E-004
 0.244253934399705E-004
 0.410457158566138E-005
 0.372192809245693E-005
 0.403106847991275E-005
 0.395206433211353E-005
 0.296629308460020E-003
 0.154937357788021E-003
 0.138219771801551E-003
 0.162350247959229E-003
 0.130632077845835E-004
 0.738415981582278E-005
 0.887974313922068E-005
 0.932455304363985E-005
 0.131660881196944E-003
 0.108074912949783E-003
 0.192009345765932E-003
 0.122590692482958E-003
 0.225923241383232E-004
 0.243261514925591E-004
 0.294764452635111E-004
 0.249955518067825E-004
 0.391502819927436E-005
 0.409027583962008E-005
 0.486481285954438E-005
 0.429449641655029E-005
 0.866355212433745E-004
 0.103115691863390E-003
 0.224175980521588E-003
 0.114627476366704E-003
 0.932199967652076E-004
 0.108324200106018E-003
 0.681561993529264E-004
 0.854961841570516E-004
 0.192815394011388E-003
 0.199519210747999E-003
 0.137110258707300E-003
 0.212104768428874E-003
 0.305770003038887E-004
 0.272476967101315E-004
 0.299052879833205E-004
 0.286708427614820E-004
 0.115711516957038E-004
 0.128354670142792E-004
 0.139938373929433E-004
 0.128167345214853E-004
 0.180761315766746E-003
 0.202053745787707E-004
 0.386844221767841E-004
 0.324832797642380E-004
 0.228657237097563E-004
 0.274367305655467E-004
 0.255925061786969E-004
 0.247617079837679E-004
 0.896623140491147E-004
 0.166233155434716E-003
 0.212598118968695E-003
 0.154218419927687E-003
 0.805440167840311E-005
 0.987164310596609E-005
 0.833270264065912E-005
 0.877320629641394E-005
 0.292772609516741E-004
 0.274667503114777E-004
 0.300759762857905E-004
 0.289556720103240E-004
 0.172336555915846E-004
 0.209033603171900E-004
 0.202423345774094E-004
 0.188696434711903E-004
 0.269068336065483E-004
 0.438215302223504E-004
 0.392500356953625E-004
 0.378291135992006E-004
 0.109491344038138E-003
 0.845467457998635E-004
 0.200328279706542E-003
 0.116035408978770E-003
 0.313994805061947E-004
 0.441366071827163E-004
 0.257013711808076E-004
 0.315494355548135E-004
 0.263751045284449E-004
 0.362163648956612E-004
 0.319248761363841E-004
 0.310303963724229E-004
 0.632758547313876E-004
 0.789371936776053E-004
 0.521476441299153E-004
 0.620607284283587E-004
 0.113157266575348E-003
 0.673092970849258E-003
 0.219302346803098E-003
 0.295927750665851E-003
 0.642353342124822E-001
 0.937625813431570E-002
 0.561764730303993E-002
 0.674070346891308E-002
 0.171007625755575E-004
 0.187426386930620E-004
 0.143580330623249E-004
 0.168625303055549E-004
 0.289982490251311E-004
 0.233486601044020E-004
 0.306151693749894E-004
 0.277617696705960E-004
 0.124061608253546E-004
 0.155388120395943E-004
 0.132121647324502E-004
 0.134592785651775E-004
 0.212333307181184E-004
 0.259852189790213E-004
 0.196816410704237E-004
 0.219778877659752E-004
 0.717409930049824E-005
 0.787766992582244E-005
 0.779516304808237E-005
 0.750805034929976E-005
 0.101138445022653E-004
 0.100304501517344E-004
 0.114790999571554E-004
 0.105433163974670E-004
 0.127497637479013E+001
 0.104588332362505E+001
 0.134062060281730E-001
 0.992975549398344E+000
 0.732550141102633E-003
 0.197958101571525E-002
 0.156366497538521E-002
 0.189887472351938E-002
 0.565781690791889E-004
 0.395167881525925E-004
 0.657033822510780E-004
 0.528154551383388E-004
 0.614448734387450E-004
 0.373125004345626E-004
 0.392966107938534E-004
 0.419620991155708E-004
 0.392853730504401E-004
 0.345574982238467E-004
 0.487589485776886E-004
 0.387091305333408E-004
 0.135070308056486E-002
 0.112936553618180E-002
 0.592001687210284E-003
 0.952465626061480E-003
 0.193646423833895E-002
 0.124204665871126E-003
 0.938386410345110E-004
 0.546966351983032E-003
 0.821734470390510E-005
 0.798348053051684E-005
 0.678290901626345E-005
 0.758427547109002E-005
 0.769281050332860E-003
 0.730626633489248E-001
 0.889398005820369E-002
 0.136258430488407E-001
 0.552958725352127E-005
 0.599741269659574E-005
 0.424066686745356E-005
 0.495184203207212E-005
 0.803411308375419E-005
 0.166490953308850E-004
 0.174669399029337E-004
 0.128775475791599E-004
 0.104227477759146E-004
 0.142995558373960E-004
 0.161239218886039E-004
 0.132663943954520E-004
 0.666775436251767E-002
 0.488629990991487E-004
 0.495579241389191E-003
 0.567639211293545E-003
 0.363818494068318E-005
 0.329632742313121E-005
 0.378406866561797E-005
 0.349139006510837E-005
 0.564490023246085E-005
 0.440715885580606E-005
 0.394760196196113E-005
 0.461781284119360E-005
 0.973731686384510E-005
 0.117470243230492E-004
 0.124745915954420E-004
 0.111807363582063E-004
 0.447715797115186E-005
 0.550696060468636E-005
 0.534419915330065E-005
 0.499924805075271E-005
 0.853979311395876E-005
 0.693261377184562E-005
 0.154575809662604E-004
 0.900419869349103E-005
 0.966291593886660E-005
 0.105343891266273E-004
 0.112440404903647E-004
 0.103595318280080E-004
 0.322371208469424E-005
 0.323532580862141E-005
 0.341597160890216E-005
 0.327367906598014E-005
 0.125876539764089E-004
 0.110809702790669E-004
 0.115168716123020E-004
 0.118111807457507E-004
 0.264739742840987E-002
 0.341277134338799E-003
 0.232349250382708E-001
 0.350996922041251E-002
 0.129918178409428E-004
 0.258731330823416E-004