# vtk DataFile Version 3.0
Unstructured Grid
ASCII
DATASET UNSTRUCTURED_GRID
FIELD FieldData 1
TIME 1 1 float
  0.231042E+02
POINTS         1241 double
 0.000000000000000E+000 0.000000000000000E+000 0.000000000000000E+000
 0.100000000000000E+001 0.000000000000000E+000 0.000000000000000E+000
 0.100000000000000E+001 0.100000000000000E+001 0.000000000000000E+000
 0.000000000000000E+000 0.100000000000000E+001 0.000000000000000E+000
 0.125000000000000E+000 0.250000000000000E+000 0.000000000000000E+000
 0.375000000000000E+000 0.250000000000000E+000 0.000000000000000E+000
 0.375000000000000E+000 0.750000000000000E+000 0.000000000000000E+000
 0.125000000000000E+000 0.750000000000000E+000 0.000000000000000E+000
 0.625000000000000E+000 0.250000000000000E+000 0.000000000000000E+000
 0.875000000000000E+000 0.250000000000000E+000 0.000000000000000E+000
 0.875000000000000E+000 0.750000000000000E+000 0.000000000000000E+000
 0.625000000000000E+000 0.750000000000000E+000 0.000000000000000E+000
 0.100000000000000E+001 0.500000000000000E+000 0.000000000000000E+000
 0.000000000000000E+000 0.500000000000000E+000 0.000000000000000E+000
 0.500000000000000E+000 0.000000000000000E+000 0.000000000000000E+000
 0.125000000000000E+000 0.500000000000000E+000 0.000000000000000E+000
 0.000000000000000E+000 0.750000000000000E+000 0.000000000000000E+000
 0.000000000000000E+000 0.250000000000000E+000 0.000000000000000E+000
 0.000000000000000E+000 0.875000000000000E+000 0.000000000000000E+000
 0.308529810216860E+000 0.500255759132561E+000 0.000000000000000E+000
 0.250000000000000E+000 0.000000000000000E+000 0.000000000000000E+000
 0.125000000000000E+000 0.375000000000000E+000 0.000000000000000E+000
 0.125000000000000E+000 0.625000000000000E+000 0.000000000000000E+000
 0.000000000000000E+000 0.375000000000000E+000 0.000000000000000E+000
 0.000000000000000E+000 0.437500000000000E+000 0.000000000000000E+000
 0.625000000000000E-001 0.406250000000000E+000 0.000000000000000E+000
 0.125000000000000E+000 0.437500000000000E+000 0.000000000000000E+000
 0.216796875000000E+000 0.382812500000000E+000 0.000000000000000E+000
 0.183593750000000E+000 0.468750000000000E+000 0.000000000000000E+000
 0.375000000000000E+000 0.500000000000000E+000 0.000000000000000E+000
 0.250000000000000E+000 0.468750000000000E+000 0.000000000000000E+000
 0.625000000000000E-001 0.481770833333333E+000 0.000000000000000E+000
 0.184176834650379E+000 0.540399924344460E+000 0.000000000000000E+000
 0.216796875000000E+000 0.432195490056818E+000 0.000000000000000E+000
 0.168571309840426E+000 0.406250000000000E+000 0.000000000000000E+000
 0.125000000000000E+000 0.687500000000000E+000 0.000000000000000E+000
 0.255828208111702E+000 0.540763692652926E+000 0.000000000000000E+000
 0.375000000000000E+000 0.375000000000000E+000 0.000000000000000E+000
 0.375000000000000E+000 0.625000000000000E+000 0.000000000000000E+000
 0.220170948184400E+000 0.507406813570504E+000 0.000000000000000E+000
 0.219557967718869E+000 0.628145457476636E+000 0.000000000000000E+000
 0.125000000000000E+000 0.562500000000000E+000 0.000000000000000E+000
 0.000000000000000E+000 0.625000000000000E+000 0.000000000000000E+000
 0.375000000000000E+000 0.437500000000000E+000 0.000000000000000E+000
 0.280323303380492E+000 0.407503995028409E+000 0.000000000000000E+000
 0.375000000000000E+000 0.562500000000000E+000 0.000000000000000E+000
 0.219817452482738E+000 0.577034793653623E+000 0.000000000000000E+000
 0.885901781235304E-001 0.531250000000000E+000 0.000000000000000E+000
 0.312500000000000E+000 0.250000000000000E+000 0.000000000000000E+000
 0.297268942273640E+000 0.626076494243052E+000 0.000000000000000E+000
 0.168732375746058E+000 0.593750000000000E+000 0.000000000000000E+000
 0.173890458776596E+000 0.343750000000000E+000 0.000000000000000E+000
 0.183963193611824E+000 0.278873942859495E+000 0.000000000000000E+000
 0.250000000000000E+000 0.250000000000000E+000 0.000000000000000E+000
 0.237162500098357E+000 0.317347265649589E+000 0.000000000000000E+000
 0.250000000000000E+000 0.750000000000000E+000 0.000000000000000E+000
 0.292902283271084E+000 0.575476271929907E+000 0.000000000000000E+000
 0.125000000000000E+000 0.312500000000000E+000 0.000000000000000E+000
 0.585937500000000E-001 0.335937500000000E+000 0.000000000000000E+000
 0.000000000000000E+000 0.312500000000000E+000 0.000000000000000E+000
 0.336992576921227E+000 0.687500000000000E+000 0.000000000000000E+000
 0.312500000000000E+000 0.750000000000000E+000 0.000000000000000E+000
 0.270599706447422E+000 0.686880677247748E+000 0.000000000000000E+000
 0.500000000000000E+000 0.100000000000000E+001 0.000000000000000E+000
 0.250000000000000E+000 0.100000000000000E+001 0.000000000000000E+000
 0.375000000000000E+000 0.100000000000000E+001 0.000000000000000E+000
 0.281250000000000E+000 0.830729166666667E+000 0.000000000000000E+000
 0.343750000000000E+000 0.312500000000000E+000 0.000000000000000E+000
 0.318389033445014E+000 0.364242983277493E+000 0.000000000000000E+000
 0.267787317245899E+000 0.358095790057897E+000 0.000000000000000E+000
 0.289796410792034E+000 0.300414294603983E+000 0.000000000000000E+000
 0.274503756719177E+000 0.737152390322435E-001 0.000000000000000E+000
 0.343750000000000E+000 0.183159722222222E+000 0.000000000000000E+000
 0.246744791666667E+000 0.146267361111111E+000 0.000000000000000E+000
 0.485980902777778E+000 0.146267361111111E+000 0.000000000000000E+000
 0.302262721771688E+000 0.146267361111111E+000 0.000000000000000E+000
 0.274503756719177E+000 0.197313658770435E+000 0.000000000000000E+000
 0.375000000000000E+000 0.000000000000000E+000 0.000000000000000E+000
 0.420862160086615E+000 0.187832617434252E+000 0.000000000000000E+000
 0.384683294119816E+000 0.146267361111111E+000 0.000000000000000E+000
 0.330565923051619E+000 0.413335216176427E+000 0.000000000000000E+000
 0.352621063931298E+000 0.818811625318066E+000 0.000000000000000E+000
 0.312179705605879E+000 0.796288985503351E+000 0.000000000000000E+000
 0.500000000000000E+000 0.828697389616904E+000 0.000000000000000E+000
 0.427559261986282E+000 0.805138192500353E+000 0.000000000000000E+000
 0.399035374849065E+000 0.860999763838749E+000 0.000000000000000E+000
 0.312500000000000E+000 0.000000000000000E+000 0.000000000000000E+000
 0.187500000000000E+000 0.820606518817204E+000 0.000000000000000E+000
 0.466707069430364E+000 0.898575881689250E+000 0.000000000000000E+000
 0.511172798160702E+000 0.257526753061783E+000 0.000000000000000E+000
 0.453250172578119E+000 0.849294180402265E+000 0.000000000000000E+000
 0.937500000000000E-001 0.504496261452806E-001 0.000000000000000E+000
 0.403162177800535E+000 0.933291523780214E+000 0.000000000000000E+000
 0.437500000000000E+000 0.100000000000000E+001 0.000000000000000E+000
 0.312500000000000E+000 0.934315683855312E+000 0.000000000000000E+000
 0.453353205989905E+000 0.949647808263675E+000 0.000000000000000E+000
 0.358054120979715E+000 0.953547171775243E+000 0.000000000000000E+000
 0.325154404090345E+000 0.873991089312954E+000 0.000000000000000E+000
 0.367644435624882E+000 0.899055397729593E+000 0.000000000000000E+000
 0.236990017361111E+000 0.801449092741935E+000 0.000000000000000E+000
 0.443167922913219E+000 0.252288460541578E+000 0.000000000000000E+000
 0.477263196714215E+000 0.204401840413902E+000 0.000000000000000E+000
 0.562394794036017E+000 0.187447086349591E+000 0.000000000000000E+000
 0.625000000000000E+000 0.375000000000000E+000 0.000000000000000E+000
 0.407024191230044E+000 0.312500000000000E+000 0.000000000000000E+000
 0.474084945258901E+000 0.294963270028168E+000 0.000000000000000E+000
 0.216342369774119E+000 0.930487241414522E-001 0.000000000000000E+000
 0.157072243143605E+000 0.162201579117130E+000 0.000000000000000E+000
 0.187500000000000E+000 0.000000000000000E+000 0.000000000000000E+000
 0.174352819470591E+000 0.117036261141583E+000 0.000000000000000E+000
 0.125000000000000E+000 0.000000000000000E+000 0.000000000000000E+000
 0.218750000000000E+000 0.413079239859885E-001 0.000000000000000E+000
 0.131982343008202E+000 0.962324019836500E-001 0.000000000000000E+000
 0.866442243142230E-001 0.109366815743071E+000 0.000000000000000E+000
 0.000000000000000E+000 0.125000000000000E+000 0.000000000000000E+000
 0.156250000000000E+000 0.557461246091935E-001 0.000000000000000E+000
 0.343473007945752E+000 0.889135573360382E-001 0.000000000000000E+000
 0.316206161479800E+000 0.485604570335434E-001 0.000000000000000E+000
 0.430629647389619E+000 0.697713778434944E-001 0.000000000000000E+000
 0.391175490408355E+000 0.981202752650288E-001 0.000000000000000E+000
 0.444501950008550E+000 0.736368377006958E+000 0.000000000000000E+000
 0.398829470438439E+000 0.687500000000000E+000 0.000000000000000E+000
 0.513688817046671E+000 0.757625009132424E+000 0.000000000000000E+000
 0.625000000000000E+000 0.500000000000000E+000 0.000000000000000E+000
 0.473588841595499E+000 0.786756047776317E+000 0.000000000000000E+000
 0.478860669310979E+000 0.411527234375853E+000 0.000000000000000E+000
 0.572911532233985E+000 0.805885984489640E+000 0.000000000000000E+000
 0.447298813474571E+000 0.682006891579307E+000 0.000000000000000E+000
 0.504019394669429E+000 0.534902916754864E+000 0.000000000000000E+000
 0.486274863958833E+000 0.352843653662708E+000 0.000000000000000E+000
 0.551332894747653E+000 0.390873360445252E+000 0.000000000000000E+000
 0.433027718644055E+000 0.375926460599989E+000 0.000000000000000E+000
 0.437992666628316E+000 0.468750000000000E+000 0.000000000000000E+000
 0.421394775819071E+000 0.423093236096220E+000 0.000000000000000E+000
 0.501785840486804E+000 0.471105361968983E+000 0.000000000000000E+000
 0.433650269193003E+000 0.539110962574808E+000 0.000000000000000E+000
 0.559767288621728E+000 0.501013305633588E+000 0.000000000000000E+000
 0.473047166828055E+000 0.607447789310414E+000 0.000000000000000E+000
 0.551301338206151E+000 0.446268697831009E+000 0.000000000000000E+000
 0.625000000000000E+000 0.625000000000000E+000 0.000000000000000E+000
[...]
CELL_DATA         2368
SCALARS tdens double 1
LOOKUP_TABLE default
 0.173764318298861E-003
 0.276994505942965E-003
 0.102834875279871E-003
 0.186500169602992E-003
 0.439426299208513E-004
 0.514560823446189E-004
 0.476671900966138E-004
 0.475016406858011E-004
 0.189136519251148E-001
 0.414456522759302E-001
 0.124031383799125E-001
 0.228132653433029E-001
 0.271838970516895E+000
 0.216546953028160E+000
 0.148669083368148E+000
 0.749335185753042E-001
 0.757089337543850E-002
 0.351667205701343E-002
 0.511954880332393E-002
 0.536906364761264E-002
 0.172783232324279E-004
 0.162999086989014E-004
 0.164723894025686E-004
 0.166928548740609E-004
 0.656116120437249E-004
 0.183532574226756E-003
 0.118033622011545E-003
 0.962975524394330E-004
 0.294014449194160E-002
 0.306956986903134E-002
 0.101625187927453E-001
 0.342048864244370E-002
 0.213035960107905E-002
 0.278576187651569E-002
 0.159293879576538E-002
 0.199940094893481E-002
 0.471999700260952E-004
 0.440801915642001E-004
 0.486489477753711E-004
 0.463877672414047E-004
 0.511927906532159E-004
 0.557047637412291E-004
 0.590612007727146E-004
 0.549898861719152E-004
 0.224150538087852E-003
 0.186359381558626E-003
 0.135872681272608E-003
 0.172535848905017E-003
 0.731416987228718E-001
 0.291308535307759E-001
 0.263652382885064E-001
 0.479628745946545E-001
 0.376877303856011E-003
 0.334492541371897E-003
 0.538819404414697E-003
 0.372152995366553E-003
 0.160507603058313E-004
 0.157004516627760E-004
 0.160903658118760E-004
 0.158654777641908E-004
 0.613582771529141E-004
 0.728393166818223E-004
 0.634518685394396E-004
 0.664111393679702E-004
 0.952543306844969E-004
 0.771208028429070E-004
 0.102375664967128E-003
 0.900189159733430E-004
 0.210734135867552E-004
 0.222918484300847E-004
 0.217540607698644E-004
 0.215151942232255E-004
 0.243487509884480E-004
 0.331422808225344E-004
 0.227813635279680E-004
 0.249790196855575E-004
 0.108390221635079E-001
 0.685787077342132E-002
 0.321683179458087E-002
 0.718504063504329E-002
 0.120188408998763E-002
 0.481845882506791E-002
 0.123630027688452E-002
 0.128497872816545E-002
 0.454791303755418E-004
 0.316765156936910E-004
 0.375512236733811E-004
 0.360208370320360E-004
 0.258097678876499E-001
 0.517210509077789E-001
 0.103380859643800E-001
 0.634296839644877E-002
 0.207784163808928E-004
 0.214348729259426E-004
 0.222003919414406E-004
 0.214776025059937E-004
 0.262350079461297E+000
 0.427841650672611E+000
 0.923035092822381E+000
 0.216612912851317E+000
 0.107029262908797E-001
 0.150509974284615E-001
 0.135076027993909E+000
 0.102567131324272E-001
 0.225089856637871E-004
 0.210566894580987E-004
 0.227388104478860E-004
 0.217640017706522E-004
 0.240229679737928E-004
 0.228425632003780E-004
 0.253126532430909E-004
 0.238950896115056E-004
 0.266111356174097E-004
 0.277947532179692E-004
 0.253729448527177E-004
 0.264822018822159E-004
 0.248523227911315E-003
 0.308959033928246E-003
 0.515384678509920E-003
 0.339824417160805E-003
 0.113959565545729E-002
 0.651569441712524E-003
 0.119781549922761E-002
 0.106521124259766E-002
 0.549489595930639E-004
 0.328360122154069E-004
 0.370059722887705E-004
 0.384326418787214E-004
 0.266018283017181E-004
 0.262556331833810E-004
 0.260913309046717E-004
 0.263431593078175E-004
 0.445142897750135E-001
 0.978840156367889E-002
 0.908941780480282E-002
 0.105964783494656E-001
 0.342946582794917E-004
 0.277389114207745E-004
 0.343046299629311E-004
 0.312775102648094E-004
 0.386427675317382E-004
 0.332331851738262E-004
 0.625631102850924E-004
 0.402002723071102E-004
 0.274473238769816E-004
 0.275384775062191E-004
 0.288192792310926E-004
 0.278036009691374E-004
 0.271139730618041E-004
 0.269208963388467E-004
 0.264335727951783E-004
 0.268262368268612E-004
 0.261541196757257E-004
 0.219934372152089E-004
 0.292102778959299E-004
 0.239472609269752E-004
 0.417195562292278E-002
 0.831838384050556E-003
 0.363284991197897E-003
 0.292471006106074E-002
 0.186205447697923E-001
 0.399124316327361E-002
 0.196053017436741E-001
 0.463660781063560E-002
 0.158697840776196E-001
 0.369472995088683E-001
 0.609046061833063E-001
 0.907084428191100E-001
 0.264231440048759E-002
 0.785274962036841E-003
 0.314403680355576E-004
 0.751742032356119E-003
 0.243122728925180E+000
 0.896809205100481E-001
 0.107299521478321E+000
 0.683321701544719E-001
 0.100546868352654E+000
 0.142029390104167E+000
 0.833094826996551E-001
 0.161526988080000E+000
 0.359441646052453E-003
 0.371354739267236E-003
 0.505010217300015E-002
 0.451480048766079E-002
 0.298340940511110E-004
 0.290770906287834E-004
 0.271855041932509E-004
 0.283861608594511E-004
 0.309691146711174E-003
 0.201010100676440E-003
 0.246456677531583E-003
 0.255453003466542E-003
 0.257644697135795E-004
 0.259282117977140E-004
 0.251825075343253E-004
 0.254604855675444E-004
 0.296251185141262E-004
 0.271730692191017E-004
 0.267018369929211E-004
 0.270682175303202E-004
 0.449241188718504E-003
 0.372868001339270E-003
 0.593161622079342E-002
 0.459957843866824E-002
 0.523750647348788E-003
 0.258946174573261E-003
 0.588373902218449E-002
 0.242137714002075E-003
 0.302240048535216E-002
 0.293539125431189E-001
 0.426313189918951E-002
 0.184780444741358E-001
 0.703962214746112E-002
 0.477199409511961E-002
 0.108488013397095E-001
 0.515464875228108E-002
 0.851893361571286E-002
 0.989551496320928E-003
 0.118841618521803E-002
 0.987310214616081E-003
 0.611792012043551E-002
 0.746620878838403E-003
 0.127734799133689E-002
 0.318997733487097E-002
 0.252552266593790E+000
 0.296826007795188E-001
 0.347132672016605E+000
 0.472255257384980E+000
 0.257835388992407E-004
 0.245518929780169E-004
 0.247112976818654E-004
 0.250973256077801E-004
 0.268221452836626E-001
 0.972587345962938E-001
 0.497518630764756E+000
 0.267715253222548E-001
 0.109400175234195E-003
 0.154472467028657E-003
 0.619076850639716E-004
 0.905408582625253E-004
 0.596608596729506E-004
 0.552753490557066E-004
 0.657570351502682E-004
 0.592514075417978E-004
 0.129687547476896E-003
 0.156534385008435E-003
 0.208217377497442E-003
 0.163937947553115E-003
 0.100804380183704E-001
 0.159244198450853E-001
 0.772665011523119E-002
 0.120010997054662E-001
 0.123882567462717E-003
 0.115338112056621E-003
 0.155662217769377E-003
 0.126466494633958E-003
 0.130839076269684E-001
 0.477653037039738E-001
 0.234897354602653E-001
 0.232659892497967E-001
 0.313803943664256E-001
 0.308361077051389E-001
 0.226181047710986E-001
 0.253254992537819E-001
 0.832138763530360E-002
 0.286066956764027E-001
 0.531223552608741E-002
 0.935274466984181E-002
 0.133796148259427E-002
 0.331388545222212E-002
 0.177640039517983E-002
 0.185024605008066E-002
 0.727671422660269E-003
 0.120470991516166E-001
 0.397406633176515E-002
 0.301649951843924E-002
 0.221859260637115E-003
 0.210913214649301E-003
 0.383483367654060E-003
 0.231212820184240E-003
 0.294923506599399E-004
 0.277061666242777E-004
 0.328412569986112E-004
 0.289601064615044E-004
 0.249346409197028E-001
 0.713310093736361E-002
 0.588477472211139E-002
 0.353158709349208E-002
 0.140869144564406E-001
 0.187002603052209E-001
 0.125599389132880E+000
 0.238343451642123E-001
 0.676397171067577E-002
 0.842023936532938E-002
 0.953859515624736E-002
 0.971912516686713E-002
 0.119458503764650E-002
 0.282104431531066E-003
 0.402142225352493E-003
 0.455702885523159E-003
 0.238820538816214E-002
 0.140943393214089E-002
 0.646032421993024E-002
 0.190397821243082E-002
 0.277252011831977E-001
 0.118727850430536E+000
 0.220674739025727E+001
 0.149518320868955E+000
 0.271776245340713E-002
 0.341632960140914E-002
 0.429083008102270E-002
 0.408361480349149E-002
 0.595425199525259E-002
 0.157989381373497E-001
 0.717365856063923E-002
 0.716545181270902E-002
 0.643288187382935E-002
 0.202171969191330E-003
 0.335879085740246E-002
 0.380739400087983E-002
 0.428206913903149E-004
 0.314045946758729E-004
 0.498416885292227E-004
 0.394521568281673E-004
 0.271632734481210E-004
 0.251484504704133E-004
 0.284563476641918E-004
 0.267698680772249E-004
 0.876079048529824E-001
 0.446051505026203E-001
 0.396477813702635E+000
 0.864370434711319E-001
 0.288635008568882E-002
 0.128426858852981E-002
 0.312479420569594E-002
 0.332220296240282E-002
 0.135034714420007E-001
 0.853002236901523E-002
 0.540863646416137E-001
 0.931796465345042E-002
 0.853372957449116E-003
 0.158522105181591E-002
 0.246969069689425E-002
 0.185528037708926E-002
 0.105987451387892E-001
 0.914563750942746E-003
 0.175401608608223E-002
 0.341475835411079E-002
 0.484996156461460E-003
 0.361710914543728E-003
 0.149968003922579E-002
 0.481394372860195E-003
 0.375208221008995E-002
 0.987390271340029E-003
 0.101986421363202E-001
 0.975292816615293E-002
 0.318155736039581E-002
 0.385532005816603E-002
 0.594760219849925E-002
 0.746645008451868E-002
 0.595504743218113E-004
 0.145801053141947E-003
 0.253816035319465E-003
 0.127882749922422E-003
 0.371839664512671E-001
 0.542247685276940E-001
 0.328037777160638E+000
 0.502287505754939E-001
 0.420321886801945E-003
 0.880197149146891E-003
 0.701390293596671E-003
 0.644227333507405E-003
 0.379886277567382E-002
 0.627731033937313E-002
 0.131804018969765E-001
 0.688391169908814E-002
 0.639521246491991E-002
 0.240456690037463E+000
 0.282947671662089E-001
 0.146056746794736E-002
 0.131692585326793E-003
 0.874195438271878E-004
 0.100795857621448E-003
 0.105804284507143E-003
 0.594616955248022E-002
 0.433987882327793E-002
 0.351299259710243E-002
 0.350985401961658E-002
 0.175865428319890E-001
 0.111303289320042E+000
 0.131736116043295E+000
 0.976695538771054E-001
 0.129042745975763E-001
 0.210606795871921E-001
 0.178115875653841E+001
 0.257201004248269E-001
 0.326342340630341E-002
 0.230227692610954E-002
 0.122534688388082E-002
 0.174045177117615E-002
 0.242582958002122E-003
 0.221556300468815E-003
 0.580585688919061E-004
 0.112150383209343E-003
 0.283029148084574E+000
 0.164988580502334E+000
 0.392636555218802E-001
 0.959763944172487E-001
 0.249178052188528E-004
 0.264173007661695E-004
 0.266553274605230E-004
 0.258253158025144E-004
 0.282019889399218E-004
 0.310306818362753E-004
 0.273210841974203E-004
 0.287114353265393E-004
 0.519343987124651E-002
 0.214037543721801E-001
 0.149975011115101E-001
 0.209838670053275E-001
 0.285824681851633E-004
 0.276202652815218E-004
 0.275966420060693E-004
 0.279209451785796E-004
 0.328460204939639E-002
 0.510636240975756E-002
 0.447504582679939E-002
 0.532657349543761E-002
 0.172444517844364E-001
 0.410435923749292E-001
 0.407394766107405E-001
 0.531844717771919E-001
 0.141914968868831E+000
 0.120726703942665E+000
 0.868523455990283E-002
 0.120541792573378E+000
 0.263057672101087E-003
 0.336013468391713E-003
 0.306294606528663E-002
 0.521365494472735E-002
 0.112420385734808E-002
 0.197745198408648E-002
 0.219596236819266E-002
 0.236628899894079E-002
 0.140069620975021E-002
 0.667272178405946E-003
 0.121929695331880E-002
 0.112386648343714E-002
 0.485623464293240E-003
 0.728929660193871E-003
 0.865276953205198E-003
 0.715192163130110E-003
 0.346120591054224E-002
 0.617257736288803E-002
 0.122160172735755E-001
 0.596094873488139E-002
 0.168797129942066E-003
 0.171499960067884E-003
 0.221516474836718E-003
 0.177852496360051E-003
 0.120699754925633E-003
 0.119106971918792E-003
 0.168927191474927E-003
 0.128154825965781E-003
 0.431425005655316E-001
 0.684658308993794E-002
 0.778789778571394E-002
 0.111158481091180E-001
 0.833898652019997E-002
 0.209879764031313E-002
 0.276356004888582E-002
 0.276950371417058E-002
 0.467870538995105E-003
 0.120304877012117E-002
 0.994538810894865E-003
 0.882357264954203E-003
 0.341606528718318E-002
 0.696208140243764E-002
 0.897631303190909E-002
 0.102311749172936E-001
 0.450057418585304E+000
 0.101065172805896E+000
 0.306172890872241E+000
 0.243998648770860E+000
 0.479590456423655E+000
 0.383880514965907E+000
 0.366924868054953E-001
 0.364686085606471E+000
 0.120777839599816E-002
 0.158136930348899E-002
 0.335999973488314E-002
 0.162685928145080E-002
 0.515662387177058E-002
 0.209913946462422E-002
 0.826320144465241E-002
 0.541629266972500E-002
 0.726333053746617E-004
 0.688122190981713E-004
 0.849122187564889E-004
 0.740558139269656E-004
 0.115188402695385E-003
 0.150296037267969E-003
 0.108645299903039E-003
 0.121424944007838E-003
 0.210117811887745E-001
 0.184291040936444E+000
 0.157310117767656E-002
 0.234383051494701E-001
 0.851213603165812E-004
 0.137197855225714E-003
 0.872968057423107E-004
 0.974905396355240E-004
 0.130429098862332E-001
 0.370124444026428E-003
 0.100672985972343E-002
 0.942726883725638E-002
 0.285825645623767E-004
 0.216426996655424E-004
 0.389571777958375E-004
 0.269666429738223E-004
 0.767468202472929E-004
 0.911400327946697E-004
 0.780315472009734E-004
 0.809910626761833E-004
 0.131323976906911E-003
 0.111186455130158E-003
 0.989487018407611E-004
 0.110760126482144E-003
 0.581474660159417E-003
 0.278556552876099E-003
 0.570736244637100E-003
 0.478093616313217E-003
 0.377290710370571E-003
 0.136334564152496E-003
 0.964019045942948E-004
 0.131470126372202E-003
 0.509984580706491E-003
 0.272414795455522E-003
 0.567265511468890E-003
 0.400344672387797E-003
 0.479906896001969E-003
 0.231535615358879E-003
 0.231191293958429E-003
 0.263359129780389E-003
 0.312384233056719E-004
 0.310976438532746E-004
 0.376647971685946E-004
 0.325494133675896E-004
 0.609840122812063E-003
 0.340314153778665E-003
 0.528877326046267E-003
 0.521876178127079E-003
 0.163941195609728E-003
 0.161546537311268E-003
 0.115897741244856E-003
 0.145237357708391E-003
 0.654669764646498E-004
 0.873500066913306E-004
 0.822857932633067E-004
 0.777672755670470E-004
 0.203764570720590E-002
 0.118876701071781E-002
 0.191194333378872E-002
 0.181783789020767E-002
 0.723982608710260E-004
 0.948705256401966E-004
 0.907501803614287E-004
 0.851240134958755E-004
 0.688388092498869E-003
 0.430853693335013E-003
 0.600028604163165E-003
 0.616720762126705E-003
 0.881534293926172E-004
 0.779986697755175E-004
 0.741832752054928E-004
 0.797928517056161E-004
 0.288017345580666E-002
 0.251143465563061E-002
 0.494957541296901E-002
 0.354908215314618E-002
 0.223328940005093E-003
 0.321396015798674E-003
 0.187478605044642E-003
 0.226259106412060E-003
 0.330914299752837E-002
 0.141417167795614E-002
 0.295248390167143E-002
 0.308304216890320E-002
 0.305878487002781E-001
 0.101378039599072E-001
 0.117181732988671E+000
 0.283644955601695E-001
 0.111102517076071E-002
 0.184023741892352E-002
 0.128675240712131E-002
 0.141866371076709E-002
 0.315543035937485E-003
 0.573122727944885E-003
 0.203792338864034E-003
 0.283804037952162E-003
 0.102660692259133E-001
 0.279558167621576E-001
 0.242807430373017E-001
 0.213508522196151E-001
 0.315417292302100E-003
 0.254007851012831E-003
 0.191203941987756E-003
 0.254417056633369E-003
 0.838038109369287E-003
 0.152210290150482E-002
 0.169578235634195E-002
 0.144223773553126E-002
 0.356126335332551E-004
 0.490230706999281E-004
 0.709970605330821E-004
 0.463427378269236E-004
 0.105197608178372E-003
 0.113197837475531E-003
 0.130832828273226E-003
 0.118605342166952E-003
 0.205140437782708E-004
 0.186298184778181E-004
 0.201628347942310E-004
 0.197666157354425E-004
 0.128637379026690E-002
 0.700743885859002E-003
 0.631041693707182E-003
 0.735279284406735E-003
 0.627837496899197E-004
 0.366897549069856E-004
 0.436225738533963E-004
 0.458054169500446E-004
 0.613270002437373E-003
 0.502679809370213E-003
 0.883356452389589E-003
 0.570954698457637E-003
 0.111607543743259E-003
 0.120110624879728E-003
 0.145228297928256E-003
 0.123392145727279E-003
 0.196342320321464E-004
 0.205093137316219E-004
 0.243535609485304E-004
 0.215218299119052E-004
 0.419499390590244E-003
 0.499484703689210E-003
 0.107029376506821E-002
 0.556209840883644E-003
 0.433862986288566E-003
 0.499864511629970E-003
 0.320907618897424E-003
 0.398514919269875E-003
 0.899659049893723E-003
 0.946612677465393E-003
 0.643891008359186E-003
 0.989385368079667E-003
 0.147887831739968E-003
 0.132197456837580E-003
 0.144683787767417E-003
 0.138820484992821E-003
 0.567045458551445E-004
 0.627582028882128E-004
 0.684663735517702E-004
 0.627060416332104E-004
 0.697621562687708E-003
 0.938484403184352E-004
 0.160884628456492E-003
 0.144642757739491E-003
 0.111277168904214E-003
 0.132926706391628E-003
 0.124315195225459E-003
 0.120344113621460E-003
 0.419402859374174E-003
 0.757845678063919E-003
 0.965306747947711E-003
 0.704614274873346E-003
 0.401478420873185E-004
 0.491240144752632E-004
 0.415226618138489E-004
 0.437076857917910E-004
 0.141792633444650E-003
 0.133233361166755E-003
 0.145500674716900E-003
 0.140298713106381E-003
 0.841521319103732E-004
 0.101740766610984E-003
 0.986699604127455E-004
 0.920755014495455E-004
 0.129988194085635E-003
 0.209303692246999E-003
 0.188164891882847E-003
 0.181132294160519E-003
 0.507255328080661E-003
 0.395884876668760E-003
 0.905388264496814E-003
 0.538533524176230E-003
 0.150155669757814E-003
 0.210155633316512E-003
 0.123980593112910E-003
 0.151363261949290E-003
 0.127780625674519E-003
 0.174044589919864E-003
 0.154019708109476E-003
 0.149723169170570E-003
 0.299255545197654E-003
 0.370823822526055E-003
 0.248121248432078E-003
 0.293711133221097E-003
 0.483738845133367E-003
 0.239611149483426E-002
 0.939458550483209E-003
 0.121115071628601E-002
 0.416368293183986E-001
 0.147925872686142E-001
 0.709384580393371E-002
 0.113073329642662E-001
 0.845552830139059E-004
 0.924778804260233E-004
 0.710856485453534E-004
 0.833085647860110E-004
 0.142851010420049E-003
 0.115301588004637E-003
 0.150815668319308E-003
 0.136805335869771E-003
 0.615705916511761E-004
 0.769106286526786E-004
 0.654836397197130E-004
 0.667384699465513E-004
 0.104894153184926E-003
 0.128038343701911E-003
 0.972309408685888E-004
 0.108520205424213E-003
 0.357899532548970E-004
 0.392686032296229E-004
 0.388584509486529E-004
 0.374401343589379E-004
 0.502486878041832E-004
 0.498598606206999E-004
 0.569618537118189E-004
 0.523727065395855E-004
 0.121206752560900E+001
 0.944080214291334E+000
 0.156093743363398E-001
 0.102997674262196E+001
 0.295476095160648E-002
 0.836690231132999E-002
 0.695355570347711E-002
 0.802030750312806E-002
 0.276243110513794E-003
 0.193935448278149E-003
 0.320866647835164E-003
 0.258026179581224E-003
 0.299987932890837E-003
 0.183170844734398E-003
 0.192944747101221E-003
 0.206079374853512E-003
 0.192941341308501E-003
 0.170109871617735E-003
 0.238802246477718E-003
 0.190253381794942E-003
 0.570603366029469E-002
 0.491400826887268E-002
 0.266850295715581E-002
 0.413272946953611E-002
 0.254051434035087E-002
 0.276322102048749E-003
 0.305429854134127E-003
 0.506057357776605E-003
 0.405537072132737E-004
 0.394069312421992E-004
 0.336870429084340E-004
 0.375269828148373E-004
 0.297900056006902E-002
 0.697735683816910E-001
 0.120729820222273E-001
 0.173743640549569E-001
 0.276751241406109E-004
 0.299601082548603E-004
 0.212467383045779E-004
 0.247804180294738E-004
 0.401047252673296E-004
 0.772514420210774E-004
 0.793063264916403E-004
 0.620798388826256E-004
 0.507156244782201E-004
 0.685447205712466E-004
 0.755484394154349E-004
 0.636446471090528E-004
 0.539430607692947E-002
 0.197687862256680E-003
 0.115902005871754E-002
 0.114591919277011E-002
 0.181954482651755E-004
 0.165387946890011E-004
 0.189163080253011E-004
 0.174942626547223E-004
 0.280842899162469E-004
 0.219915645685349E-004
 0.197844877839567E-004
 0.230639669408487E-004
 0.478023472069803E-004
 0.574541601239337E-004
 0.606422877310116E-004
 0.546183574620581E-004
 0.224274651179558E-004
 0.274974699920403E-004
 0.267158144126521E-004
 0.250096646344276E-004
 0.423816537520591E-004
 0.346866658001853E-004
 0.758696444981104E-004
 0.449839030388097E-004
 0.474764722926198E-004
 0.517420165768868E-004
 0.551069347751920E-004
 0.508683943562746E-004
 0.161649130474984E-004
 0.162387574351849E-004
 0.171071939824956E-004
 0.164129248552691E-004
 0.621022786965592E-004
 0.547510094567991E-004
 0.569608385253865E-004
 0.583178271702734E-004
 0.190451720713074E-002
 0.570423270785796E-003
 0.146580108889455E-001
 0.316458336691599E-002
 0.613852943541779E-004
 0.119828594429172E-003