# vtk DataFile Version 3.0
Unstructured Grid
ASCII
DATASET UNSTRUCTURED_GRID
FIELD FieldData 1
TIME 1 1 float
  0.184375E+02
POINTS         1241 double
 0.000000000000000E+000 0.000000000000000E+000 0.000000000000000E+000
 0.100000000000000E+001 0.000000000000000E+000 0.000000000000000E+000
 0.100000000000000E+001 0.100000000000000E+001 0.000000000000000E+000
 0.000000000000000E+000 0.100000000000000E+001 0.000000000000000E+000
 0.125000000000000E+000 0.250000000000000E+000 0.000000000000000E+000
 0.375000000000000E+000 0.250000000000000E+000 0.000000000000000E+000
 0.375000000000000E+000 0.750000000000000E+000 0.000000000000000E+000
 0.125000000000000E+000 0.750000000000000E+000 0.000000000000000E+000
 0.625000000000000E+000 0.250000000000000E+000 0.000000000000000E+000
 0.875000000000000E+000 0.250000000000000E+000 0.000000000000000E+000
 0.875000000000000E+000 0.750000000000000E+000 0.000000000000000E+000
 0.625000000000000E+000 0.750000000000000E+000 0.000000000000000E+000
 0.100000000000000E+001 0.500000000000000E+000 0.000000000000000E+000
 0.000000000000000E+000 0.500000000000000E+000 0.000000000000000E+000
 0.500000000000000E+000 0.000000000000000E+000 0.000000000000000E+000
 0.125000000000000E+000 0.500000000000000E+000 0.000000000000000E+000
 0.000000000000000E+000 0.750000000000000E+000 0.000000000000000E+000
 0.000000000000000E+000 0.250000000000000E+000 0.000000000000000E+000
 0.000000000000000E+000 0.875000000000000E+000 0.000000000000000E+000
 0.308529810216860E+000 0.500255759132561E+000 0.000000000000000E+000
 0.250000000000000E+000 0.000000000000000E+000 0.000000000000000E+000
 0.125000000000000E+000 0.375000000000000E+000 0.000000000000000E+000
 0.125000000000000E+000 0.625000000000000E+000 0.000000000000000E+000
 0.000000000000000E+000 0.375000000000000E+000 0.000000000000000E+000
 0.000000000000000E+000 0.437500000000000E+000 0.000000000000000E+000
 0.625000000000000E-001 0.406250000000000E+000 0.000000000000000E+000
 0.125000000000000E+000 0.437500000000000E+000 0.000000000000000E+000
 0.216796875000000E+000 0.382812500000000E+000 0.000000000000000E+000
 0.183593750000000E+000 0.468750000000000E+000 0.000000000000000E+000
 0.375000000000000E+000 0.500000000000000E+000 0.000000000000000E+000
 0.250000000000000E+000 0.468750000000000E+000 0.000000000000000E+000
 0.625000000000000E-001 0.481770833333333E+000 0.000000000000000E+000
 0.184176834650379E+000 0.540399924344460E+000 0.000000000000000E+000
 0.216796875000000E+000 0.432195490056818E+000 0.000000000000000E+000
 0.168571309840426E+000 0.406250000000000E+000 0.000000000000000E+000
 0.125000000000000E+000 0.687500000000000E+000 0.000000000000000E+000
 0.255828208111702E+000 0.540763692652926E+000 0.000000000000000E+000
 0.375000000000000E+000 0.375000000000000E+000 0.000000000000000E+000
 0.375000000000000E+000 0.625000000000000E+000 0.000000000000000E+000
 0.220170948184400E+000 0.507406813570504E+000 0.000000000000000E+000
 0.219557967718869E+000 0.628145457476636E+000 0.000000000000000E+000
 0.125000000000000E+000 0.562500000000000E+000 0.000000000000000E+000
 0.000000000000000E+000 0.625000000000000E+000 0.000000000000000E+000
 0.375000000000000E+000 0.437500000000000E+000 0.000000000000000E+000
 0.280323303380492E+000 0.407503995028409E+000 0.000000000000000E+000
 0.375000000000000E+000 0.562500000000000E+000 0.000000000000000E+000
 0.219817452482738E+000 0.577034793653623E+000 0.000000000000000E+000
 0.885901781235304E-001 0.531250000000000E+000 0.000000000000000E+000
 0.312500000000000E+000 0.250000000000000E+000 0.000000000000000E+000
 0.297268942273640E+000 0.626076494243052E+000 0.000000000000000E+000
 0.168732375746058E+000 0.593750000000000E+000 0.000000000000000E+000
 0.173890458776596E+000 0.343750000000000E+000 0.000000000000000E+000
 0.183963193611824E+000 0.278873942859495E+000 0.000000000000000E+000
 0.250000000000000E+000 0.250000000000000E+000 0.000000000000000E+000
 0.237162500098357E+000 0.317347265649589E+000 0.000000000000000E+000
 0.250000000000000E+000 0.750000000000000E+000 0.000000000000000E+000
 0.292902283271084E+000 0.575476271929907E+000 0.000000000000000E+000
 0.125000000000000E+000 0.312500000000000E+000 0.000000000000000E+000
 0.585937500000000E-001 0.335937500000000E+000 0.000000000000000E+000
 0.000000000000000E+000 0.312500000000000E+000 0.000000000000000E+000
 0.336992576921227E+000 0.687500000000000E+000 0.000000000000000E+000
 0.312500000000000E+000 0.750000000000000E+000 0.000000000000000E+000
 0.270599706447422E+000 0.686880677247748E+000 0.000000000000000E+000
 0.500000000000000E+000 0.100000000000000E+001 0.000000000000000E+000
 0.250000000000000E+000 0.100000000000000E+001 0.000000000000000E+000
 0.375000000000000E+000 0.100000000000000E+001 0.000000000000000E+000
 0.281250000000000E+000 0.830729166666667E+000 0.000000000000000E+000
 0.343750000000000E+000 0.312500000000000E+000 0.000000000000000E+000
 0.318389033445014E+000 0.364242983277493E+000 0.000000000000000E+000
 0.267787317245899E+000 0.358095790057897E+000 0.000000000000000E+000
 0.289796410792034E+000 0.300414294603983E+000 0.000000000000000E+000
 0.274503756719177E+000 0.737152390322435E-001 0.000000000000000E+000
 0.343750000000000E+000 0.183159722222222E+000 0.000000000000000E+000
 0.246744791666667E+000 0.146267361111111E+000 0.000000000000000E+000
 0.485980902777778E+000 0.146267361111111E+000 0.000000000000000E+000
 0.302262721771688E+000 0.146267361111111E+000 0.000000000000000E+000
 0.274503756719177E+000 0.197313658770435E+000 0.000000000000000E+000
 0.375000000000000E+000 0.000000000000000E+000 0.000000000000000E+000
 0.420862160086615E+000 0.187832617434252E+000 0.000000000000000E+000
 0.384683294119816E+000 0.146267361111111E+000 0.000000000000000E+000
 0.330565923051619E+000 0.413335216176427E+000 0.000000000000000E+000
 0.352621063931298E+000 0.818811625318066E+000 0.000000000000000E+000
 0.312179705605879E+000 0.796288985503351E+000 0.000000000000000E+000
 0.500000000000000E+000 0.828697389616904E+000 0.000000000000000E+000
 0.427559261986282E+000 0.805138192500353E+000 0.000000000000000E+000
 0.399035374849065E+000 0.860999763838749E+000 0.000000000000000E+000
 0.312500000000000E+000 0.000000000000000E+000 0.000000000000000E+000
 0.187500000000000E+000 0.820606518817204E+000 0.000000000000000E+000
 0.466707069430364E+000 0.898575881689250E+000 0.000000000000000E+000
 0.511172798160702E+000 0.257526753061783E+000 0.000000000000000E+000
 0.453250172578119E+000 0.849294180402265E+000 0.000000000000000E+000
 0.937500000000000E-001 0.504496261452806E-001 0.000000000000000E+000
 0.403162177800535E+000 0.933291523780214E+000 0.000000000000000E+000
 0.437500000000000E+000 0.100000000000000E+001 0.000000000000000E+000
 0.312500000000000E+000 0.934315683855312E+000 0.000000000000000E+000
 0.453353205989905E+000 0.949647808263675E+000 0.000000000000000E+000
 0.358054120979715E+000 0.953547171775243E+000 0.000000000000000E+000
 0.325154404090345E+000 0.873991089312954E+000 0.000000000000000E+000
 0.367644435624882E+000 0.899055397729593E+000 0.000000000000000E+000
 0.236990017361111E+000 0.801449092741935E+000 0.000000000000000E+000
 0.443167922913219E+000 0.252288460541578E+000 0.000000000000000E+000
 0.477263196714215E+000 0.204401840413902E+000 0.000000000000000E+000
 0.562394794036017E+000 0.187447086349591E+000 0.000000000000000E+000
 0.625000000000000E+000 0.375000000000000E+000 0.000000000000000E+000
 0.407024191230044E+000 0.312500000000000E+000 0.000000000000000E+000
 0.474084945258901E+000 0.294963270028168E+000 0.000000000000000E+000
 0.216342369774119E+000 0.930487241414522E-001 0.000000000000000E+000
 0.157072243143605E+000 0.162201579117130E+000 0.000000000000000E+000
 0.187500000000000E+000 0.000000000000000E+000 0.000000000000000E+000
 0.174352819470591E+000 0.117036261141583E+000 0.000000000000000E+000
 0.125000000000000E+000 0.000000000000000E+000 0.000000000000000E+000
 0.218750000000000E+000 0.413079239859885E-001 0.000000000000000E+000
 0.131982343008202E+000 0.962324019836500E-001 0.000000000000000E+000
 0.866442243142230E-001 0.109366815743071E+000 0.000000000000000E+000
 0.000000000000000E+000 0.125000000000000E+000 0.000000000000000E+000
 0.156250000000000E+000 0.557461246091935E-001 0.000000000000000E+000
 0.343473007945752E+000 0.889135573360382E-001 0.000000000000000E+000
 0.316206161479800E+000 0.485604570335434E-001 0.000000000000000E+000
 0.430629647389619E+000 0.697713778434944E-001 0.000000000000000E+000
 0.391175490408355E+000 0.981202752650288E-001 0.000000000000000E+000
 0.444501950008550E+000 0.736368377006958E+000 0.000000000000000E+000
 0.398829470438439E+000 0.687500000000000E+000 0.000000000000000E+000
 0.513688817046671E+000 0.757625009132424E+000 0.000000000000000E+000
 0.625000000000000E+000 0.500000000000000E+000 0.000000000000000E+000
 0.473588841595499E+000 0.786756047776317E+000 0.000000000000000E+000
 0.478860669310979E+000 0.411527234375853E+000 0.000000000000000E+000
 0.572911532233985E+000 0.805885984489640E+000 0.000000000000000E+000
 0.447298813474571E+000 0.682006891579307E+000 0.000000000000000E+000
 0.504019394669429E+000 0.534902916754864E+000 0.000000000000000E+000
 0.486274863958833E+000 0.352843653662708E+000 0.000000000000000E+000
 0.551332894747653E+000 0.390873360445252E+000 0.000000000000000E+000
 0.433027718644055E+000 0.375926460599989E+000 0.000000000000000E+000
 0.437992666628316E+000 0.468750000000000E+000 0.000000000000000E+000
 0.421394775819071E+000 0.423093236096220E+000 0.000000000000000E+000
 0.501785840486804E+000 0.471105361968983E+000 0.000000000000000E+000
 0.433650269193003E+000 0.539110962574808E+000 0.000000000000000E+000
 0.559767288621728E+000 0.501013305633588E+000 0.000000000000000E+000
 0.473047166828055E+000 0.607447789310414E+000 0.000000000000000E+000
 0.551301338206151E+000 0.446268697831009E+000 0.000000000000000E+000
 0.625000000000000E+000 0.625000000000000E+000 0.000000000000000E+000
[...]
CELL_DATA         2368
SCALARS tdens double 1
LOOKUP_TABLE default
 0.421739699805308E-002
 0.511009909261549E-002
 0.291599302641446E-002
 0.416034369911207E-002
 0.167200044361781E-002
 0.189511082567747E-002
 0.178506663457141E-002
 0.178207575999150E-002
 0.209001039938845E-001
 0.402129623164590E-001
 0.276275570654890E-001
 0.238021771404260E-001
 0.160727322454243E-001
 0.184784014455000E-001
 0.203165103524238E-001
 0.173673375465224E-001
 0.624729736048093E-001
 0.339640159628230E-001
 0.536636917402320E-001
 0.532330874002180E-001
 0.767235913943834E-003
 0.736815633539613E-003
 0.742158332822588E-003
 0.749148231838687E-003
 0.131320039199047E-002
 0.161352411624929E-002
 0.120681264756867E-002
 0.127946071270244E-002
 0.156364663802368E-001
 0.153217574273282E-001
 0.176716082862239E-001
 0.163588326486916E-001
 0.290975049987341E-001
 0.425694009277495E-001
 0.271277495116423E-001
 0.295917599070882E-001
 0.184606973496629E-002
 0.174123460876758E-002
 0.189680869599616E-002
 0.182032737925433E-002
 0.189195137069194E-002
 0.202063763039929E-002
 0.211513992952521E-002
 0.199693742826360E-002
 0.552109342406091E-002
 0.481286902213597E-002
 0.389445511854148E-002
 0.458939327886576E-002
 0.510263839306001E-001
 0.327116438225481E-001
 0.257602093715886E-001
 0.292525491739604E-001
 0.108428049813948E-001
 0.100761509883746E-001
 0.151252672137433E-001
 0.110519520997979E-001
 0.728636350396038E-003
 0.715237657724850E-003
 0.729088007958904E-003
 0.721384577765384E-003
 0.231005303527609E-002
 0.267054351007915E-002
 0.237458646908574E-002
 0.246603958460398E-002
 0.322917724434642E-002
 0.273256863078053E-002
 0.332960917883733E-002
 0.305764051382603E-002
 0.906270906641858E-003
 0.951142363445940E-003
 0.922710156184900E-003
 0.919860393481327E-003
 0.877219225570502E-003
 0.843570122025227E-003
 0.852617067470863E-003
 0.833977965790553E-003
 0.174350123550330E-001
 0.191870609757491E-001
 0.167777939614345E-001
 0.177485518577620E-001
 0.139200155836872E-001
 0.225631322610418E-001
 0.133511594719224E-001
 0.149540373723328E-001
 0.166443709782939E-002
 0.133773614127345E-002
 0.140340967513904E-002
 0.143522293311649E-002
 0.224337651715452E-001
 0.237644941222214E-001
 0.109113528088176E-001
 0.142399363181511E-001
 0.924223903171453E-003
 0.904537430453762E-003
 0.958181215887954E-003
 0.928232397245160E-003
 0.500874589163580E-001
 0.706311483609144E-001
 0.795349801452176E-001
 0.671650948629192E-001
 0.214334668706578E-001
 0.238266924042244E-001
 0.267756472931147E-001
 0.221666567111465E-001
 0.969576517538000E-003
 0.941039350874845E-003
 0.976255284024260E-003
 0.959679866232115E-003
 0.945907848763970E-003
 0.967424610097635E-003
 0.103577377331616E-002
 0.983136673023816E-003
 0.112890798377508E-002
 0.118189625652056E-002
 0.110209522649781E-002
 0.113960779992074E-002
 0.578766972305352E-002
 0.669104322767794E-002
 0.904429622358483E-002
 0.717764433609133E-002
 0.133439209094226E-001
 0.106026359388630E-001
 0.139050781922924E-001
 0.130182324215641E-001
 0.154237874279819E-002
 0.116187437854464E-002
 0.125460680824530E-002
 0.127873404028154E-002
 0.105759180935198E-002
 0.108597044164033E-002
 0.107099116229533E-002
 0.107201545163787E-002
 0.240299462874760E-001
 0.196148180506962E-001
 0.223076210419416E-001
 0.209156931565288E-001
 0.125131637208807E-002
 0.113747832119640E-002
 0.116737723498348E-002
 0.118032076171926E-002
 0.118987142966702E-002
 0.116387213382227E-002
 0.159403775400136E-002
 0.126697104461976E-002
 0.105715338952051E-002
 0.106458438740504E-002
 0.108122935601958E-002
 0.106621376018393E-002
 0.106447775126182E-002
 0.106001861686877E-002
 0.106780061128449E-002
 0.106465626312514E-002
 0.100220666082531E-002
 0.866573979915031E-003
 0.968453785843563E-003
 0.934993370558748E-003
 0.802024235597873E-002
 0.381573221639571E-002
 0.249686988416573E-002
 0.371896832527314E-002
 0.133189439879114E-001
 0.386224066556468E-002
 0.160630569864530E-001
 0.775909147224485E-002
 0.209203467590443E-001
 0.282228332049284E-001
 0.483315343795796E-001
 0.485508290992656E-001
 0.303537259773658E-002
 0.130833403251398E-002
 0.971094576473251E-003
 0.142465267286299E-002
 0.658239423511790E-001
 0.376344243061178E-001
 0.510989988840084E-001
 0.371095839973477E-001
 0.201467572008054E-001
 0.178109508693339E-001
 0.230849391490435E-001
 0.213668601252434E-001
 0.206206119199713E-002
 0.193631805625103E-002
 0.895761752482145E-002
 0.412153371970839E-002
 0.109546222118313E-002
 0.103740541235057E-002
 0.103820507532001E-002
 0.105233026883452E-002
 0.684850556771656E-002
 0.519385228166966E-002
 0.594665665169252E-002
 0.605236960303487E-002
 0.107582590896451E-002
 0.109262861580492E-002
 0.108332588056463E-002
 0.108176697363328E-002
 0.107136637789071E-002
 0.109824131616492E-002
 0.104342889948476E-002
 0.105972300467653E-002
 0.267284663553824E-002
 0.219058161533400E-002
 0.720249064297711E-002
 0.377599616044779E-002
 0.171360821704075E-002
 0.178214279305430E-002
 0.560150942206970E-002
 0.199735463377362E-002
 0.615777239406629E-002
 0.134506522983594E-001
 0.286944098405370E-002
 0.800812184904843E-002
 0.157370712172215E-001
 0.992848623421080E-002
 0.128116019712724E-001
 0.108850227161771E-001
 0.106221377858974E-001
 0.540648086524899E-002
 0.425571653602762E-002
 0.605874787842168E-002
 0.143674608185795E-001
 0.561758745169927E-002
 0.720033521830920E-002
 0.925435283343010E-002
 0.650217154665104E-001
 0.459751853103181E-001
 0.715496623385207E-001
 0.709474862097418E-001
 0.110601986502973E-002
 0.108115711739696E-002
 0.108320950984256E-002
 0.109303409729561E-002
 0.498007562952847E-001
 0.494419042206027E-001
 0.778965597701713E-001
 0.478937656757127E-001
 0.255121083866541E-002
 0.304379433620894E-002
 0.164006462950308E-002
 0.229382533028455E-002
 0.206169071282056E-002
 0.197155030892292E-002
 0.222922327956093E-002
 0.207117197385368E-002
 0.378237957801049E-002
 0.433808266250648E-002
 0.527240774298738E-002
 0.447808004433450E-002
 0.465084116877970E-001
 0.472420215875346E-001
 0.266112009286259E-001
 0.459514374390497E-001
 0.378563441813506E-002
 0.361684221616742E-002
 0.447934868009901E-002
 0.388030826756882E-002
 0.288461209218106E-001
 0.453805702612397E-001
 0.447222008940590E-001
 0.425127029294454E-001
 0.223279632538878E-001
 0.313561222798036E-001
 0.183953289518417E-001
 0.262483722147747E-001
 0.111495223338916E-001
 0.155744842694712E-001
 0.947381950744835E-002
 0.110296871287653E-001
 0.124248729598164E-001
 0.164463149328470E-001
 0.135559116182262E-001
 0.141943970376321E-001
 0.681553976477334E-002
 0.123633594260030E-001
 0.145028300374654E-001
 0.137851776685420E-001
 0.229960254836985E-002
 0.333796192706705E-002
 0.371050310287016E-002
 0.303375784094863E-002
 0.124260345972735E-002
 0.115626519790459E-002
 0.128662269678490E-002
 0.121304349875020E-002
 0.196378462515223E-001
 0.121678642825249E-001
 0.903616744520514E-002
 0.113534467990500E-001
 0.213483604487703E-001
 0.140942171780414E-001
 0.216397638763597E-001
 0.209654412637045E-001
 0.195335225164153E-001
 0.180756004632573E-001
 0.125702488224801E-001
 0.186437213184309E-001
 0.605478568470222E-002
 0.342546840505959E-002
 0.398940017415663E-002
 0.415678776708128E-002
 0.886242652531088E-002
 0.719668038312935E-002
 0.188574801292941E-001
 0.876499939989783E-002
 0.758015086914784E-001
 0.742706121031818E-001
 0.862782170709205E-001
 0.832991074638965E-001
 0.184837052760540E-001
 0.335365050313125E-001
 0.388795546304709E-001
 0.358500990666054E-001
 0.267005371273608E-001
 0.461079900697327E-001
 0.398050731553857E-001
 0.391236366327349E-001
 0.826681752139571E-002
 0.226866851686445E-002
 0.726805410201513E-002
 0.545804280842374E-002
 0.137135642244083E-002
 0.121980289795595E-002
 0.170800343798235E-002
 0.138253881259921E-002
 0.113921199259018E-002
 0.109173615970795E-002
 0.120780615235753E-002
 0.113807424571868E-002
 0.375084600747535E-001
 0.342649472293093E-001
 0.366362644015217E-001
 0.384853800457059E-001
 0.215781672607058E-001
 0.151508013792158E-001
 0.228950148640637E-001
 0.220427190806834E-001
 0.133512691012735E-001
 0.209743164657517E-001
 0.152884095969158E-001
 0.156015494075299E-001
 0.830201996192814E-002
 0.169599395960249E-001
 0.253699555267175E-001
 0.175455880386506E-001
 0.101636495205368E-001
 0.653961937754960E-002
 0.390245265002274E-002
 0.677414515839297E-002
 0.582477395987820E-002
 0.565942486269401E-002
 0.144872789743055E-001
 0.625337845846508E-002
 0.170064514343274E-001
 0.705806516957620E-002
 0.174677303376239E-001
 0.190978913314539E-001
 0.102061457276652E-001
 0.175087194589113E-001
 0.170630987604534E-001
 0.180688608632816E-001
 0.146061488304330E-002
 0.224709029589340E-002
 0.297109511683618E-002
 0.208504774839483E-002
 0.314423366553985E-001
 0.270373670129442E-001
 0.267111103313644E-001
 0.298812558595129E-001
 0.830615685868353E-002
 0.128158654125249E-001
 0.112324952397839E-001
 0.105080689068525E-001
 0.186414520630014E-001
 0.186714730894914E-001
 0.200863607489820E-001
 0.197668875643076E-001
 0.484380308636143E-002
 0.509697918184673E-001
 0.144494157610904E-001
 0.874455309088735E-002
 0.365998413321897E-002
 0.276007976122589E-002
 0.310090251255163E-002
 0.315604054775095E-002
 0.103454003522025E-001
 0.788403802049202E-002
 0.111417380057617E-001
 0.909159189724240E-002
 0.256434384446738E-001
 0.242974667388231E-001
 0.272328658070109E-001
 0.239758978383291E-001
 0.780800708585994E-001
 0.869518932321284E-001
 0.104684839578122E+000
 0.858770542432907E-001
 0.272080732635967E-001
 0.152075112725953E-001
 0.900562753778592E-002
 0.141407221142525E-001
 0.290772933885743E-002
 0.260479290119446E-002
 0.134258222099993E-002
 0.200388423980708E-002
 0.438403649833521E-001
 0.399129056156897E-001
 0.220340534889317E-001
 0.340968366591327E-001
 0.954196816836701E-003
 0.994755021283306E-003
 0.101225914792778E-002
 0.980506694232119E-003
 0.104474826941588E-002
 0.112475397418229E-002
 0.103061037373067E-002
 0.106458180358078E-002
 0.982695014528473E-002
 0.165628211745770E-001
 0.182111429542894E-001
 0.165886644784343E-001
 0.107448318612321E-002
 0.106148320356459E-002
 0.104884671540667E-002
 0.106144356197415E-002
 0.154950132424063E-001
 0.245534654324618E-001
 0.128980317971443E-001
 0.169412050191480E-001
 0.130500946797454E-001
 0.167807802074407E-001
 0.160967444713724E-001
 0.155133910218033E-001
 0.238009482890012E-001
 0.209638010598906E-001
 0.206771479782371E-001
 0.229757011495617E-001
 0.116460571144247E-002
 0.145321173406246E-002
 0.441786736754959E-002
 0.216455679834409E-002
 0.584398301998255E-002
 0.102139369465529E-001
 0.652256911330388E-002
 0.677278719321711E-002
 0.132195786354663E-001
 0.965168250988731E-002
 0.122505358626321E-001
 0.116730041819988E-001
 0.104878513641374E-001
 0.129290581090566E-001
 0.165762069316224E-001
 0.133345155846695E-001
 0.161672794315906E-001
 0.183945342697276E-001
 0.185302091623711E-001
 0.174398745203289E-001
 0.467169131214172E-002
 0.461551384009059E-002
 0.558377115274542E-002
 0.481531690480778E-002
 0.346487791049227E-002
 0.336340470970305E-002
 0.430819155488855E-002
 0.360649982031064E-002
 0.127975764096162E-001
 0.881701385647182E-002
 0.292747995125844E-002
 0.551779388256166E-002
 0.231924721199407E-001
 0.175592725941912E-001
 0.179371127558846E-001
 0.191537905478061E-001
 0.911799209013320E-002
 0.143971560655696E-001
 0.135781959841181E-001
 0.120511775558956E-001
 0.103172403097679E-001
 0.168365985669363E-001
 0.141291533826405E-001
 0.147339297409432E-001
 0.229890782780971E-001
 0.250623658473492E-001
 0.187623132009571E-001
 0.210687812019675E-001
 0.310106444533617E-001
 0.375265579880675E-001
 0.345496440843888E-001
 0.316504805699001E-001
 0.145648892145644E-001
 0.167413451567115E-001
 0.222952200172877E-001
 0.171949089051193E-001
 0.245922197279372E-001
 0.184852248502506E-001
 0.247816286344231E-001
 0.236961591888539E-001
 0.245547583612495E-002
 0.236973357099916E-002
 0.275708476785692E-002
 0.249959046260400E-002
 0.345772221183246E-002
 0.413798650532172E-002
 0.330046475383138E-002
 0.358250804353215E-002
 0.279760241018609E-001
 0.340328107693874E-001
 0.144637967860630E-001
 0.296892196990030E-001
 0.265919108120068E-002
 0.362418872453045E-002
 0.262039050658532E-002
 0.290916773898851E-002
 0.880031591130781E-002
 0.211584350817079E-002
 0.178174520453283E-002
 0.331497614231796E-002
 0.960344623293904E-003
 0.827972172875444E-003
 0.105000770678802E-002
 0.923964626834477E-003
 0.265489456251510E-002
 0.302979802864862E-002
 0.266482115469369E-002
 0.276780918259599E-002
 0.382791850838525E-002
 0.338152601088469E-002
 0.311556988183982E-002
 0.339408377843447E-002
 0.962210345507748E-002
 0.627373086436571E-002
 0.984965444124097E-002
 0.840720463326421E-002
 0.564423981857111E-002
 0.305367706595382E-002
 0.267419399058532E-002
 0.323757829095912E-002
 0.756446401478762E-002
 0.569860767868027E-002
 0.909736732031764E-002
 0.694645167764263E-002
 0.817234909853214E-002
 0.525331349349750E-002
 0.540666731204667E-002
 0.593769586580207E-002
 0.117111224120946E-002
 0.118543059155318E-002
 0.136424316224889E-002
 0.122029275430513E-002
 0.106202179315691E-001
 0.739897716347108E-002
 0.936533241127489E-002
 0.943605399409457E-002
 0.437538748078756E-002
 0.424208694661378E-002
 0.343641589713772E-002
 0.399053959220465E-002
 0.229008529080560E-002
 0.285764488345571E-002
 0.272547922896451E-002
 0.260444962072860E-002
 0.216313807834758E-001
 0.155715146406872E-001
 0.182451278156922E-001
 0.189082193654660E-001
 0.246492229491247E-002
 0.301414118850830E-002
 0.290324136870038E-002
 0.277793817441937E-002
 0.174462793517020E-001
 0.119870998071121E-001
 0.165173081593204E-001
 0.162244890326086E-001
 0.281301459741448E-002
 0.254346046058250E-002
 0.247402379440926E-002
 0.261620692553584E-002
 0.234696882520527E-001
 0.189870122461252E-001
 0.214674317744286E-001
 0.224353167866695E-001
 0.522277872877712E-002
 0.654554821777106E-002
 0.475830216522790E-002
 0.536028020200847E-002
 0.172079247375966E-001
 0.129718940772607E-001
 0.169939354241650E-001
 0.165741302299195E-001
 0.182402341021404E-001
 0.198197535447049E-001
 0.197649429530546E-001
 0.192769373497172E-001
 0.157769530062038E-001
 0.223042511066987E-001
 0.208351045398513E-001
 0.203498432965209E-001
 0.560333851625724E-002
 0.812236282700516E-002
 0.445230454239220E-002
 0.545867696079682E-002
 0.231301916649156E-001
 0.235730460032486E-001
 0.282777711839284E-001
 0.243751299996482E-001
 0.660799290499862E-002
 0.602495011078980E-002
 0.491717868068652E-002
 0.588737672278785E-002
 0.115260978245555E-001
 0.141557583840170E-001
 0.157335272174147E-001
 0.141598650425981E-001
 0.107685048425664E-002
 0.117389553934145E-002
 0.143997763296184E-002
 0.124873648379599E-002
 0.323883613274321E-002
 0.337567027097962E-002
 0.378341576318383E-002
 0.351973871983604E-002
 0.879726240152238E-003
 0.815382408463396E-003
 0.870479900748204E-003
 0.855242252100075E-003
 0.128846861430761E-001
 0.102692520320616E-001
 0.941299035012551E-002
 0.104314574876298E-001
 0.190117379418702E-002
 0.130413717816211E-002
 0.150486204473084E-002
 0.154992590215862E-002
 0.136120023890109E-001
 0.109821037596039E-001
 0.174759699564192E-001
 0.127401905186309E-001
 0.342786327821245E-002
 0.363039055603143E-002
 0.413692834703755E-002
 0.369605330297767E-002
 0.836388164531191E-003
 0.866899460957981E-003
 0.970799999255447E-003
 0.893912555597883E-003
 0.813702323548855E-002
 0.899361921254520E-002
 0.129920570128526E-001
 0.995126813237786E-002
 0.795407732086080E-002
 0.886697849362062E-002
 0.700698399842526E-002
 0.772873947045373E-002
 0.195170969105985E-001
 0.221466158020936E-001
 0.150944440470448E-001
 0.210006723854393E-001
 0.428483268383983E-002
 0.395581665995186E-002
 0.414253664183944E-002
 0.405596928624244E-002
 0.193852239348940E-002
 0.208571354691401E-002
 0.226494680689677E-002
 0.209411270169718E-002
 0.578110417120740E-002
 0.230085998177082E-002
 0.268090152029596E-002
 0.296135046729797E-002
 0.340253071752565E-002
 0.386349688497331E-002
 0.375276315918189E-002
 0.362977674799721E-002
 0.727231043097360E-002
 0.984117590523894E-002
 0.111036586887231E-001
 0.931403616042023E-002
 0.155690225599697E-002
 0.182930383438787E-002
 0.159764709587063E-002
 0.167023352240257E-002
 0.427587211014792E-002
 0.401427163512870E-002
 0.427802937038676E-002
 0.419919738000003E-002
 0.268588391023611E-002
 0.310591348115493E-002
 0.306917216932525E-002
 0.290030617220684E-002
 0.357340810557200E-002
 0.486780508981492E-002
 0.462278892756283E-002
 0.441557394222628E-002
 0.821146980315073E-002
 0.704667317595403E-002
 0.105486994330279E-001
 0.848390976517872E-002
 0.376733559087728E-002
 0.477418088876438E-002
 0.339142706409966E-002
 0.386615699019572E-002
 0.366008600154472E-002
 0.447292398666307E-002
 0.420793660389901E-002
 0.407222274716032E-002
 0.606651913897348E-002
 0.706864071567830E-002
 0.552801609225228E-002
 0.608368009680715E-002
 0.703538959850379E-002
 0.141725527312061E-001
 0.102302808310321E-001
 0.112163464981580E-001
 0.137404525847206E-001
 0.187237138184708E-001
 0.100665242055760E-001
 0.175823833477481E-001
 0.278177055116049E-002
 0.297017973384871E-002
 0.243806755633126E-002
 0.273411260417099E-002
 0.409453634879549E-002
 0.351017866862565E-002
 0.425996896063035E-002
 0.395544318261177E-002
 0.217797960158417E-002
 0.257818273104306E-002
 0.228320130776719E-002
 0.232443759459692E-002
 0.326246152361866E-002
 0.376689616918153E-002
 0.308155076828901E-002
 0.334836152173374E-002
 0.141991097038438E-002
 0.152982790071082E-002
 0.151827316315288E-002
 0.147197388456164E-002
 0.186482951057151E-002
 0.185163616588332E-002
 0.205379025609734E-002
 0.192690230133005E-002
 0.122365083887752E+000
 0.115950903089044E+000
 0.635342763201879E-001
 0.122491103676221E+000
 0.360602529873206E-001
 0.838235257179661E-001
 0.894950637386060E-001
 0.823280218140629E-001
 0.645769366028856E-002
 0.506904517361937E-002
 0.707522029571154E-002
 0.609049403801743E-002
 0.666544338933168E-002
 0.483121024553029E-002
 0.501260141344995E-002
 0.530714741113540E-002
 0.527403964672979E-002
 0.495231119332517E-002
 0.621832941097868E-002
 0.532041893407503E-002
 0.214683443243305E-001
 0.189981195154127E-001
 0.180391368564807E-001
 0.182686203305681E-001
 0.801814627261242E-002
 0.378709701056009E-002
 0.387828509943445E-002
 0.417459866422802E-002
 0.147373753150095E-002
 0.142553910580676E-002
 0.126639671254711E-002
 0.137966187122536E-002
 0.183511077654790E-001
 0.177032193239088E-001
 0.129558475241656E-001
 0.227319891971315E-001
 0.105491599619628E-002
 0.108159922048663E-002
 0.877611506566521E-003
 0.965371972910728E-003
 0.138970742546551E-002
 0.218004749131604E-002
 0.232016852306886E-002
 0.185815103210392E-002
 0.170685550542680E-002
 0.215082553005388E-002
 0.219393093761001E-002
 0.198608511937696E-002
 0.876854305223719E-002
 0.378547410776699E-002
 0.810543995372640E-002
 0.863297237066458E-002
 0.769565889588759E-003
 0.742092108209812E-003
 0.794983122319877E-003
 0.764880958218890E-003
 0.101049789110949E-002
 0.873348398090005E-003
 0.834447948288765E-003
 0.907770333058735E-003
 0.169526784674869E-002
 0.197564530019687E-002
 0.202334027759006E-002
 0.187338164148231E-002
 0.926115227117824E-003
 0.107935713717006E-002
 0.104654222112048E-002
 0.100214510186077E-002
 0.131300469168086E-002
 0.121823731265155E-002
 0.202494125371562E-002
 0.145377908904865E-002
 0.168841964200851E-002
 0.183191501889339E-002
 0.191757243357426E-002
 0.180377405345686E-002
 0.725333318979701E-003
 0.734049099011840E-003
 0.746097506231431E-003
 0.732549550500658E-003
 0.217708363927049E-002
 0.197634529095148E-002
 0.204545489477466E-002
 0.207371146305816E-002
 0.115530890161232E-002
 0.287966191153273E-002
 0.220971932961584E-002
 0.181523413169059E-002
 0.147337877515725E-002
 0.253288660103661E-002