# vtk DataFile Version 3.0
Unstructured Grid
ASCII
DATASET UNSTRUCTURED_GRID
FIELD FieldData 1
TIME 1 1 float
  0.188819E+02
POINTS         1241 double
 0.000000000000000E+000 0.000000000000000E+000 0.000000000000000E+000
 0.100000000000000E+001 0.000000000000000E+000 0.000000000000000E+000
 0.100000000000000E+001 0.100000000000000E+001 0.000000000000000E+000
 0.000000000000000E+000 0.100000000000000E+001 0.000000000000000E+000
 0.125000000000000E+000 0.250000000000000E+000 0.000000000000000E+000
 0.375000000000000E+000 0.250000000000000E+000 0.000000000000000E+000
 0.375000000000000E+000 0.750000000000000E+000 0.000000000000000E+000
 0.125000000000000E+000 0.750000000000000E+000 0.000000000000000E+000
 0.625000000000000E+000 0.250000000000000E+000 0.000000000000000E+000
 0.875000000000000E+000 0.250000000000000E+000 0.000000000000000E+000
 0.875000000000000E+000 0.750000000000000E+000 0.000000000000000E+000
 0.625000000000000E+000 0.750000000000000E+000 0.000000000000000E+000
 0.100000000000000E+001 0.500000000000000E+000 0.000000000000000E+000
 0.000000000000000E+000 0.500000000000000E+000 0.000000000000000E+000
 0.500000000000000E+000 0.000000000000000E+000 0.000000000000000E+000
 0.125000000000000E+000 0.500000000000000E+000 0.000000000000000E+000
 0.000000000000000E+000 0.750000000000000E+000 0.000000000000000E+000
 0.000000000000000E+000 0.250000000000000E+000 0.000000000000000E+000
 0.000000000000000E+000 0.875000000000000E+000 0.000000000000000E+000
 0.308529810216860E+000 0.500255759132561E+000 0.000000000000000E+000
 0.250000000000000E+000 0.000000000000000E+000 0.000000000000000E+000
 0.125000000000000E+000 0.375000000000000E+000 0.000000000000000E+000
 0.125000000000000E+000 0.625000000000000E+000 0.000000000000000E+000
 0.000000000000000E+000 0.375000000000000E+000 0.000000000000000E+000
 0.000000000000000E+000 0.437500000000000E+000 0.000000000000000E+000
 0.625000000000000E-001 0.406250000000000E+000 0.000000000000000E+000
 0.125000000000000E+000 0.437500000000000E+000 0.000000000000000E+000
 0.216796875000000E+000 0.382812500000000E+000 0.000000000000000E+000
 0.183593750000000E+000 0.468750000000000E+000 0.000000000000000E+000
 0.375000000000000E+000 0.500000000000000E+000 0.000000000000000E+000
 0.250000000000000E+000 0.468750000000000E+000 0.000000000000000E+000
 0.625000000000000E-001 0.481770833333333E+000 0.000000000000000E+000
 0.184176834650379E+000 0.540399924344460E+000 0.000000000000000E+000
 0.216796875000000E+000 0.432195490056818E+000 0.000000000000000E+000
 0.168571309840426E+000 0.406250000000000E+000 0.000000000000000E+000
 0.125000000000000E+000 0.687500000000000E+000 0.000000000000000E+000
 0.255828208111702E+000 0.540763692652926E+000 0.000000000000000E+000
 0.375000000000000E+000 0.375000000000000E+000 0.000000000000000E+000
 0.375000000000000E+000 0.625000000000000E+000 0.000000000000000E+000
 0.220170948184400E+000 0.507406813570504E+000 0.000000000000000E+000
 0.219557967718869E+000 0.628145457476636E+000 0.000000000000000E+000
 0.125000000000000E+000 0.562500000000000E+000 0.000000000000000E+000
 0.000000000000000E+000 0.625000000000000E+000 0.000000000000000E+000
 0.375000000000000E+000 0.437500000000000E+000 0.000000000000000E+000
 0.280323303380492E+000 0.407503995028409E+000 0.000000000000000E+000
 0.375000000000000E+000 0.562500000000000E+000 0.000000000000000E+000
 0.219817452482738E+000 0.577034793653623E+000 0.000000000000000E+000
 0.885901781235304E-001 0.531250000000000E+000 0.000000000000000E+000
 0.312500000000000E+000 0.250000000000000E+000 0.000000000000000E+000
 0.297268942273640E+000 0.626076494243052E+000 0.000000000000000E+000
 0.168732375746058E+000 0.593750000000000E+000 0.000000000000000E+000
 0.173890458776596E+000 0.343750000000000E+000 0.000000000000000E+000
 0.183963193611824E+000 0.278873942859495E+000 0.000000000000000E+000
 0.250000000000000E+000 0.250000000000000E+000 0.000000000000000E+000
 0.237162500098357E+000 0.317347265649589E+000 0.000000000000000E+000
 0.250000000000000E+000 0.750000000000000E+000 0.000000000000000E+000
 0.292902283271084E+000 0.575476271929907E+000 0.000000000000000E+000
 0.125000000000000E+000 0.312500000000000E+000 0.000000000000000E+000
 0.585937500000000E-001 0.335937500000000E+000 0.000000000000000E+000
 0.000000000000000E+000 0.312500000000000E+000 0.000000000000000E+000
 0.336992576921227E+000 0.687500000000000E+000 0.000000000000000E+000
 0.312500000000000E+000 0.750000000000000E+000 0.000000000000000E+000
 0.270599706447422E+000 0.686880677247748E+000 0.000000000000000E+000
 0.500000000000000E+000 0.100000000000000E+001 0.000000000000000E+000
 0.250000000000000E+000 0.100000000000000E+001 0.000000000000000E+000
 0.375000000000000E+000 0.100000000000000E+001 0.000000000000000E+000
 0.281250000000000E+000 0.830729166666667E+000 0.000000000000000E+000
 0.343750000000000E+000 0.312500000000000E+000 0.000000000000000E+000
 0.318389033445014E+000 0.364242983277493E+000 0.000000000000000E+000
 0.267787317245899E+000 0.358095790057897E+000 0.000000000000000E+000
 0.289796410792034E+000 0.300414294603983E+000 0.000000000000000E+000
 0.274503756719177E+000 0.737152390322435E-001 0.000000000000000E+000
 0.343750000000000E+000 0.183159722222222E+000 0.000000000000000E+000
 0.246744791666667E+000 0.146267361111111E+000 0.000000000000000E+000
 0.485980902777778E+000 0.146267361111111E+000 0.000000000000000E+000
 0.302262721771688E+000 0.146267361111111E+000 0.000000000000000E+000
 0.274503756719177E+000 0.197313658770435E+000 0.000000000000000E+000
 0.375000000000000E+000 0.000000000000000E+000 0.000000000000000E+000
 0.420862160086615E+000 0.187832617434252E+000 0.000000000000000E+000
 0.384683294119816E+000 0.146267361111111E+000 0.000000000000000E+000
 0.330565923051619E+000 0.413335216176427E+000 0.000000000000000E+000
 0.352621063931298E+000 0.818811625318066E+000 0.000000000000000E+000
 0.312179705605879E+000 0.796288985503351E+000 0.000000000000000E+000
 0.500000000000000E+000 0.828697389616904E+000 0.000000000000000E+000
 0.427559261986282E+000 0.805138192500353E+000 0.000000000000000E+000
 0.399035374849065E+000 0.860999763838749E+000 0.000000000000000E+000
 0.312500000000000E+000 0.000000000000000E+000 0.000000000000000E+000
 0.187500000000000E+000 0.820606518817204E+000 0.000000000000000E+000
 0.466707069430364E+000 0.898575881689250E+000 0.000000000000000E+000
 0.511172798160702E+000 0.257526753061783E+000 0.000000000000000E+000
 0.453250172578119E+000 0.849294180402265E+000 0.000000000000000E+000
 0.937500000000000E-001 0.504496261452806E-001 0.000000000000000E+000
 0.403162177800535E+000 0.933291523780214E+000 0.000000000000000E+000
 0.437500000000000E+000 0.100000000000000E+001 0.000000000000000E+000
 0.312500000000000E+000 0.934315683855312E+000 0.000000000000000E+000
 0.453353205989905E+000 0.949647808263675E+000 0.000000000000000E+000
 0.358054120979715E+000 0.953547171775243E+000 0.000000000000000E+000
 0.325154404090345E+000 0.873991089312954E+000 0.000000000000000E+000
 0.367644435624882E+000 0.899055397729593E+000 0.000000000000000E+000
 0.236990017361111E+000 0.801449092741935E+000 0.000000000000000E+000
 0.443167922913219E+000 0.252288460541578E+000 0.000000000000000E+000
 0.477263196714215E+000 0.204401840413902E+000 0.000000000000000E+000
 0.562394794036017E+000 0.187447086349591E+000 0.000000000000000E+000
 0.625000000000000E+000 0.375000000000000E+000 0.000000000000000E+000
 0.407024191230044E+000 0.312500000000000E+000 0.000000000000000E+000
 0.474084945258901E+000 0.294963270028168E+000 0.000000000000000E+000
 0.216342369774119E+000 0.930487241414522E-001 0.000000000000000E+000
 0.157072243143605E+000 0.162201579117130E+000 0.000000000000000E+000
 0.187500000000000E+000 0.000000000000000E+000 0.000000000000000E+000
 0.174352819470591E+000 0.117036261141583E+000 0.000000000000000E+000
 0.125000000000000E+000 0.000000000000000E+000 0.000000000000000E+000
 0.218750000000000E+000 0.413079239859885E-001 0.000000000000000E+000
 0.131982343008202E+000 0.962324019836500E-001 0.000000000000000E+000
 0.866442243142230E-001 0.109366815743071E+000 0.000000000000000E+000
 0.000000000000000E+000 0.125000000000000E+000 0.000000000000000E+000
 0.156250000000000E+000 0.557461246091935E-001 0.000000000000000E+000
 0.343473007945752E+000 0.889135573360382E-001 0.000000000000000E+000
 0.316206161479800E+000 0.485604570335434E-001 0.000000000000000E+000
 0.430629647389619E+000 0.697713778434944E-001 0.000000000000000E+000
 0.391175490408355E+000 0.981202752650288E-001 0.000000000000000E+000
 0.444501950008550E+000 0.736368377006958E+000 0.000000000000000E+000
 0.398829470438439E+000 0.687500000000000E+000 0.000000000000000E+000
 0.513688817046671E+000 0.757625009132424E+000 0.000000000000000E+000
 0.625000000000000E+000 0.500000000000000E+000 0.000000000000000E+000
 0.473588841595499E+000 0.786756047776317E+000 0.000000000000000E+000
 0.478860669310979E+000 0.411527234375853E+000 0.000000000000000E+000
 0.572911532233985E+000 0.805885984489640E+000 0.000000000000000E+000
 0.447298813474571E+000 0.682006891579307E+000 0.000000000000000E+000
 0.504019394669429E+000 0.534902916754864E+000 0.000000000000000E+000
 0.486274863958833E+000 0.352843653662708E+000 0.000000000000000E+000
 0.551332894747653E+000 0.390873360445252E+000 0.000000000000000E+000
 0.433027718644055E+000 0.375926460599989E+000 0.000000000000000E+000
 0.437992666628316E+000 0.468750000000000E+000 0.000000000000000E+000
 0.421394775819071E+000 0.423093236096220E+000 0.000000000000000E+000
 0.501785840486804E+000 0.471105361968983E+000 0.000000000000000E+000
 0.433650269193003E+000 0.539110962574808E+000 0.000000000000000E+000
 0.559767288621728E+000 0.501013305633588E+000 0.000000000000000E+000
 0.473047166828055E+000 0.607447789310414E+000 0.000000000000000E+000
 0.551301338206151E+000 0.446268697831009E+000 0.000000000000000E+000
 0.625000000000000E+000 0.625000000000000E+000 0.000000000000000E+000
[...]
CELL_DATA         2368
SCALARS tdens double 1
LOOKUP_TABLE default
 0.330286715515541E-002
 0.411756116990457E-002
 0.221686403801696E-002
 0.328913180252649E-002
 0.121138144960846E-002
 0.138410636638310E-002
 0.129810768599504E-002
 0.129563467374304E-002
 0.208875780178055E-001
 0.419938073850991E-001
 0.269027566051190E-001
 0.234517077716105E-001
 0.176515319943437E-001
 0.210157444613147E-001
 0.200531442218567E-001
 0.185152666040157E-001
 0.675276908995046E-001
 0.327389365372562E-001
 0.550123943087728E-001
 0.547471292173601E-001
 0.533936922192274E-003
 0.511060337989734E-003
 0.515117605369789E-003
 0.520339627534474E-003
 0.965004381716634E-003
 0.124391945214819E-002
 0.930109202994758E-003
 0.960117770625419E-003
 0.143321715004522E-001
 0.143078958451180E-001
 0.170698491513279E-001
 0.152891668902689E-001
 0.249799532055961E-001
 0.375493088660734E-001
 0.228800643985378E-001
 0.253359154635148E-001
 0.132814937342647E-002
 0.124982930277966E-002
 0.136531065130991E-002
 0.130854401603770E-002
 0.138018753346566E-002
 0.148121646966492E-002
 0.155457543581037E-002
 0.146295846644037E-002
 0.442161605814994E-002
 0.380075721679840E-002
 0.301187972127425E-002
 0.360494482766924E-002
 0.576893735118682E-001
 0.328933693569926E-001
 0.276623283558975E-001
 0.320653896574324E-001
 0.856189391457638E-002
 0.786513281872748E-002
 0.121007166466298E-001
 0.867107233369434E-002
 0.505002067649988E-003
 0.495320087382563E-003
 0.505471554767170E-003
 0.499785209855506E-003
 0.167697381175631E-002
 0.195107345250190E-002
 0.172736351882919E-002
 0.179645102700903E-002
 0.237762144954244E-002
 0.199445137764594E-002
 0.245955748277798E-002
 0.224752542701118E-002
 0.635326438937902E-003
 0.668145366273862E-003
 0.648150692976207E-003
 0.645513165179653E-003
 0.615798813998365E-003
 0.610673049723499E-003
 0.598539928654907E-003
 0.591135064186814E-003
 0.165600063359609E-001
 0.174669918488662E-001
 0.153001636385896E-001
 0.164785719981428E-001
 0.127684010265856E-001
 0.231133102929501E-001
 0.121743520788333E-001
 0.137351422384660E-001
 0.119078021963580E-002
 0.946530194852314E-003
 0.987378761695526E-003
 0.101597087673494E-002
 0.245745272800914E-001
 0.268535282526671E-001
 0.115149769037884E-001
 0.143363175872669E-001
 0.641473351022217E-003
 0.630103333928238E-003
 0.669782693327317E-003
 0.646520530897069E-003
 0.574481769224378E-001
 0.923989057322670E-001
 0.106882991864918E+000
 0.843107210393305E-001
 0.219525543634767E-001
 0.246011735541026E-001
 0.290289618683902E-001
 0.226323264651150E-001
 0.680187204915945E-003
 0.655119223383363E-003
 0.684328651790672E-003
 0.670471627600177E-003
 0.659467955177143E-003
 0.670674462804569E-003
 0.723463639687745E-003
 0.684423955020515E-003
 0.797632675768660E-003
 0.833955771913299E-003
 0.773432738421073E-003
 0.802478937324273E-003
 0.466197704720373E-002
 0.549523580609467E-002
 0.772755858418154E-002
 0.592651400924992E-002
 0.123438269613442E-001
 0.927189010705698E-002
 0.128222350653379E-001
 0.119313738442245E-001
 0.116161592022007E-002
 0.846422436846866E-003
 0.922235084437654E-003
 0.940434740956473E-003
 0.755829217368678E-003
 0.771471266559686E-003
 0.762522784967495E-003
 0.763697335835045E-003
 0.245477158732751E-001
 0.207325861819881E-001
 0.226298618188988E-001
 0.213147833359840E-001
 0.885599252392532E-003
 0.807447850349204E-003
 0.840040983289758E-003
 0.841165943731891E-003
 0.879594838210636E-003
 0.847931800880257E-003
 0.120976032058170E-002
 0.935893954108798E-003
 0.759246980474653E-003
 0.764683535326479E-003
 0.779957973017067E-003
 0.766591934075513E-003
 0.762930535988389E-003
 0.758966115448737E-003
 0.762140998584580E-003
 0.761805940110201E-003
 0.718320520501557E-003
 0.616108101642726E-003
 0.697380088425184E-003
 0.666464952827530E-003
 0.771033271209130E-002
 0.336814539235611E-002
 0.207784789972251E-002
 0.334509750558860E-002
 0.136821259743764E-001
 0.376589744934963E-002
 0.170626053452268E-001
 0.733458531077246E-002
 0.215919787755503E-001
 0.316569366512788E-001
 0.563122784819646E-001
 0.563370463182409E-001
 0.288970989902639E-002
 0.110674459405025E-002
 0.712376506829721E-003
 0.123268934399634E-002
 0.792156057693271E-001
 0.426520951571568E-001
 0.595436304724741E-001
 0.410642968332722E-001
 0.235071114194084E-001
 0.201487793523593E-001
 0.278432963771244E-001
 0.258225277562229E-001
 0.168800357101863E-002
 0.164419965715102E-002
 0.890947801019867E-002
 0.420933029920288E-002
 0.792415008734986E-003
 0.750996494801620E-003
 0.745782731381912E-003
 0.759242494237443E-003
 0.564809712626186E-002
 0.413460922608225E-002
 0.480794140218101E-002
 0.491495775232845E-002
 0.764016606745007E-003
 0.773979473978493E-003
 0.765449993268517E-003
 0.765947355815026E-003
 0.768628966492484E-003
 0.781556157219923E-003
 0.746347338162370E-003
 0.757261329670595E-003
 0.210491470599169E-002
 0.175291521290792E-002
 0.663259866049567E-002
 0.351652865673149E-002
 0.147481294392293E-002
 0.143518085498684E-002
 0.554863756017498E-002
 0.163052607561845E-002
 0.603242787952801E-002
 0.146601874856792E-001
 0.288256934532754E-002
 0.877819956445782E-002
 0.153922184609758E-001
 0.101834522278289E-001
 0.135157426856222E-001
 0.109947579355148E-001
 0.106012457243496E-001
 0.489506761620728E-002
 0.378698331586517E-002
 0.540903978663606E-002
 0.138826445935233E-001
 0.495672976734599E-002
 0.675194938977084E-002
 0.896793899982044E-002
 0.791294398718067E-001
 0.509163820140843E-001
 0.911511298221051E-001
 0.907778417878026E-001
 0.780600514189886E-003
 0.757401341336365E-003
 0.762087899035854E-003
 0.769290343859150E-003
 0.564088793564168E-001
 0.555392848683825E-001
 0.103319934571498E+000
 0.531527390140596E-001
 0.194974433693333E-002
 0.233639995457731E-002
 0.120036005300232E-002
 0.172570737160299E-002
 0.151698328240434E-002
 0.144289784094619E-002
 0.164852046412190E-002
 0.152194514349096E-002
 0.291571736009254E-002
 0.338969198044486E-002
 0.420003705345212E-002
 0.350950503051252E-002
 0.484665940099091E-001
 0.502638047489945E-001
 0.260822499173805E-001
 0.483355538603033E-001
 0.289956275405330E-002
 0.275401104633214E-002
 0.348044394786718E-002
 0.296997303640974E-002
 0.279082197083354E-001
 0.477245985693902E-001
 0.467892409840409E-001
 0.440644052989860E-001
 0.235800425443303E-001
 0.322414160729920E-001
 0.185085831670435E-001
 0.272735775293522E-001
 0.100346783615627E-001
 0.156088934665462E-001
 0.862364915023383E-002
 0.101638097565686E-001
 0.111530795807922E-001
 0.157192887748319E-001
 0.123710368040914E-001
 0.130478141780306E-001
 0.573152095372657E-002
 0.117369412951720E-001
 0.131261308623552E-001
 0.128326510732279E-001
 0.176543750982381E-002
 0.256692994641867E-002
 0.288613335885550E-002
 0.231914802519452E-002
 0.878194152736561E-003
 0.818546247034677E-003
 0.909355392353090E-003
 0.857528339431532E-003
 0.204722018324376E-001
 0.117501223205851E-001
 0.848937288468679E-002
 0.104692081196184E-001
 0.207992783288286E-001
 0.142508512278203E-001
 0.211100185314089E-001
 0.204879764099075E-001
 0.183881676290447E-001
 0.174548727720431E-001
 0.126865571562883E-001
 0.184264504860273E-001
 0.573801647330292E-002
 0.294323067198149E-002
 0.349007457570901E-002
 0.370517035485008E-002
 0.883759511978492E-002
 0.684160830373606E-002
 0.201602890950220E-001
 0.846343692982857E-002
 0.946604518815699E-001
 0.966384670072292E-001
 0.125180539499396E+000
 0.110479038472199E+000
 0.156109001813302E-001
 0.308690346519234E-001
 0.366478302064144E-001
 0.337070294542068E-001
 0.252560501189270E-001
 0.481686892789343E-001
 0.398679209646671E-001
 0.389701894290516E-001
 0.807535815053302E-002
 0.180067002830457E-002
 0.663392694692030E-002
 0.516237374190077E-002
 0.986254956198198E-003
 0.863732404299656E-003
 0.124386974648688E-002
 0.991571480763760E-003
 0.800288831502089E-003
 0.764233194059129E-003
 0.852023357272095E-003
 0.799758373564050E-003
 0.451933638403993E-001
 0.412644899047149E-001
 0.453870735048958E-001
 0.466368206349191E-001
 0.212178055232177E-001
 0.139588654517218E-001
 0.230716920479058E-001
 0.221855578281552E-001
 0.117121912910907E-001
 0.180482364067039E-001
 0.142481368845392E-001
 0.137886522351764E-001
 0.657067855295456E-002
 0.147057702065322E-001
 0.227222725762346E-001
 0.155261695712470E-001
 0.987274538410853E-002
 0.562634535280801E-002
 0.332165882338352E-002
 0.591298231421853E-002
 0.459901644697830E-002
 0.457804451213307E-002
 0.127603924884938E-001
 0.500320354833411E-002
 0.170719383130090E-001
 0.642203395075197E-002
 0.178678382533232E-001
 0.199501785867736E-001
 0.102371079929836E-001
 0.181367412844281E-001
 0.182701476094994E-001
 0.199561147194990E-001
 0.111510527736167E-002
 0.180269344957770E-002
 0.249190525193132E-002
 0.167142797398786E-002
 0.381566360133770E-001
 0.332073120844870E-001
 0.330343347472510E-001
 0.372552411091307E-001
 0.699303655942807E-002
 0.115385613622297E-001
 0.985083279206347E-002
 0.918136070216807E-002
 0.197164324268741E-001
 0.202139593116041E-001
 0.228526813608104E-001
 0.217180937143035E-001
 0.489925349612312E-002
 0.653481747662355E-001
 0.154155800878727E-001
 0.792971196515702E-002
 0.281815642848200E-002
 0.207350419971016E-002
 0.234863863290897E-002
 0.240053422057331E-002
 0.889416752888785E-002
 0.679112945060869E-002
 0.927392737840151E-002
 0.759262762073766E-002
 0.265103598094066E-001
 0.271287831251181E-001
 0.293684371030170E-001
 0.256307962330496E-001
 0.911083272446141E-001
 0.111210950199588E+000
 0.168746021904173E+000
 0.108981437317087E+000
 0.250672789590567E-001
 0.128230465190967E-001
 0.734326856574995E-002
 0.116087608614772E-001
 0.246475714329010E-002
 0.220278012967136E-002
 0.103474196074935E-002
 0.161062660254338E-002
 0.540595146425462E-001
 0.479984517345766E-001
 0.235779016705842E-001
 0.399065746967835E-001
 0.685455356734849E-003
 0.717716832664656E-003
 0.728822727983932E-003
 0.705897117741148E-003
 0.757338361396286E-003
 0.818510802663339E-003
 0.743139532441973E-003
 0.770679648725769E-003
 0.902406068905057E-002
 0.165574709849258E-001
 0.183714491075017E-001
 0.169211987247161E-001
 0.775109905327533E-003
 0.763129800160631E-003
 0.755250659616261E-003
 0.764343733463480E-003
 0.128755107417600E-001
 0.211536353764357E-001
 0.108122786438969E-001
 0.144447126706895E-001
 0.119960195521634E-001
 0.161745427957893E-001
 0.158376040603429E-001
 0.151430973382463E-001
 0.257163974322553E-001
 0.221790483472260E-001
 0.210173377540773E-001
 0.245661561361241E-001
 0.914832138452580E-003
 0.124323569617921E-002
 0.412051555713882E-002
 0.206373057378555E-002
 0.460112264627003E-002
 0.823209306639396E-002
 0.546408648283768E-002
 0.552674018716625E-002
 0.116090424508001E-001
 0.809627846390202E-002
 0.107829732071420E-001
 0.101621810425893E-001
 0.834631659504717E-002
 0.105583591030341E-001
 0.135484376446678E-001
 0.108513535680727E-001
 0.153178355925108E-001
 0.181237120740788E-001
 0.183265203151297E-001
 0.169700466370874E-001
 0.355295772756876E-002
 0.352614373977033E-002
 0.431218400408399E-002
 0.367486350361121E-002
 0.261718535531728E-002
 0.254699021715970E-002
 0.332100008557296E-002
 0.273413280420799E-002
 0.143678498688156E-001
 0.874215506194708E-002
 0.306962183123514E-002
 0.548444812267112E-002
 0.263043282059845E-001
 0.174821661709413E-001
 0.184580889952561E-001
 0.197012216215348E-001
 0.773946408056986E-002
 0.135253596088300E-001
 0.124301823805885E-001
 0.109691448003516E-001
 0.104137506684168E-001
 0.183497565521320E-001
 0.150098109456768E-001
 0.162938350244293E-001
 0.284932760524742E-001
 0.311150224929960E-001
 0.221213439932251E-001
 0.249224510773277E-001
 0.401476868905223E-001
 0.484965903094315E-001
 0.419058522130033E-001
 0.397999224996659E-001
 0.134156331442962E-001
 0.159778328577983E-001
 0.227551246133768E-001
 0.163772250246523E-001
 0.263797627477285E-001
 0.182830076328337E-001
 0.281413487389887E-001
 0.257230171527005E-001
 0.182430232308495E-002
 0.175609860300035E-002
 0.206792826760384E-002
 0.185912988838223E-002
 0.264363743489363E-002
 0.321698078280596E-002
 0.251236764615413E-002
 0.274722359254121E-002
 0.304397798914188E-001
 0.403015789303452E-001
 0.132238116843575E-001
 0.330267893743301E-001
 0.199775531280267E-002
 0.280548056707833E-002
 0.197558028278056E-002
 0.220211538990147E-002
 0.972531002441539E-002
 0.187480946755455E-002
 0.161552003756115E-002
 0.355098096154550E-002
 0.699078404352067E-003
 0.588722980306233E-003
 0.779572588872806E-003
 0.667355207600199E-003
 0.197336204505939E-002
 0.227437362840643E-002
 0.198623376276286E-002
 0.206345659248030E-002
 0.295693079686195E-002
 0.258261854499723E-002
 0.236224277313495E-002
 0.258978701246053E-002
 0.823934533064370E-002
 0.508794645106166E-002
 0.844725303057100E-002
 0.712395161699592E-002
 0.466690021555169E-002
 0.237994165371360E-002
 0.203399665071365E-002
 0.249687557630091E-002
 0.636314157807154E-002
 0.460886732230225E-002
 0.775421779384990E-002
 0.575272906580790E-002
 0.690218945749912E-002
 0.420139026882850E-002
 0.432924823832251E-002
 0.478409767747088E-002
 0.843202154512760E-003
 0.850979110380524E-003
 0.989303609169866E-003
 0.878770233912268E-003
 0.865600764719571E-002
 0.584591357989860E-002
 0.761402895433649E-002
 0.765254467618020E-002
 0.341922311650536E-002
 0.331169064686525E-002
 0.262637307457945E-002
 0.309380042842131E-002
 0.169416904264678E-002
 0.214957458405544E-002
 0.204277722064449E-002
 0.194683344978805E-002
 0.185939527632901E-001
 0.131325829355709E-001
 0.157931985991516E-001
 0.162879238110806E-001
 0.183225854669805E-002
 0.227671027207864E-002
 0.218648716789486E-002
 0.208431750340936E-002
 0.142880517183563E-001
 0.954622380938458E-002
 0.132954589432289E-001
 0.131789926081941E-001
 0.211485973682482E-002
 0.189908180753050E-002
 0.184109524255684E-002
 0.195411008873119E-002
 0.203712149395210E-001
 0.165473811442667E-001
 0.190507982025888E-001
 0.198953343231166E-001
 0.408437671497091E-002
 0.522933803442057E-002
 0.367020444949736E-002
 0.418268138062530E-002
 0.165074957551808E-001
 0.116936588569383E-001
 0.160895469606083E-001
 0.157757569505714E-001
 0.182543011537519E-001
 0.201115470776785E-001
 0.206056006593862E-001
 0.195650550916801E-001
 0.132055966295490E-001
 0.190282357683430E-001
 0.174294913088365E-001
 0.171654680988585E-001
 0.455433774882252E-002
 0.686488099252435E-002
 0.351436932841286E-002
 0.439165469123334E-002
 0.206422397398133E-001
 0.210144319632730E-001
 0.250824268661442E-001
 0.217435826982655E-001
 0.525182805801097E-002
 0.469596635485228E-002
 0.378434735676218E-002
 0.460882475050143E-002
 0.966671164159415E-002
 0.123527676140711E-001
 0.136703809243501E-001
 0.122730271424762E-001
 0.797804768608027E-003
 0.884353899592292E-003
 0.112327518145308E-002
 0.943780515506646E-003
 0.241751614976730E-002
 0.253353619824848E-002
 0.285529308549474E-002
 0.264420239141278E-002
 0.616488887665490E-003
 0.569033283036262E-003
 0.609388587235032E-003
 0.598307232809585E-003
 0.111961516745718E-001
 0.855337696332012E-002
 0.784113399957536E-002
 0.873852533513075E-002
 0.142380623502415E-002
 0.949023614729202E-003
 0.110109512407297E-002
 0.113891558104686E-002
 0.108966051972824E-001
 0.874471627854379E-002
 0.142799475229238E-001
 0.101650161877549E-001
 0.261886658461712E-002
 0.278523913725497E-002
 0.321794057269551E-002
 0.284183130152436E-002
 0.586559866020030E-003
 0.609158057799398E-003
 0.689730160084420E-003
 0.630151554847701E-003
 0.688836008472104E-002
 0.775082987544566E-002
 0.121005064282847E-001
 0.861980691095215E-002
 0.644922481564992E-002
 0.721441646953513E-002
 0.553464907266358E-002
 0.620507520792847E-002
 0.158577485102545E-001
 0.179651342022552E-001
 0.120462475678810E-001
 0.171876564315288E-001
 0.323382915312207E-002
 0.296908294594391E-002
 0.313244255070913E-002
 0.305602631638427E-002
 0.141679214461750E-002
 0.153221008393598E-002
 0.166659797749436E-002
 0.153737901052326E-002
 0.498129360178377E-002
 0.175136493514439E-002
 0.210118393495440E-002
 0.230311158809943E-002
 0.254314208897118E-002
 0.291320952900727E-002
 0.281193864072544E-002
 0.271996975681441E-002
 0.598278519051633E-002
 0.846755714180410E-002
 0.968816453360381E-002
 0.796235706933250E-002
 0.112333022572109E-002
 0.133330968305722E-002
 0.115488599049320E-002
 0.120964337189147E-002
 0.320579489105716E-002
 0.300940737378345E-002
 0.322063329896375E-002
 0.315226726509099E-002
 0.199068640759276E-002
 0.232097985870572E-002
 0.228641960250948E-002
 0.215539855084418E-002
 0.271965754610333E-002
 0.381419881978249E-002
 0.358730633263839E-002
 0.343021694467233E-002
 0.678590333810282E-002
 0.575991109045769E-002
 0.913179928023985E-002
 0.706399201266860E-002
 0.290967802837024E-002
 0.375427884192093E-002
 0.258180149731973E-002
 0.297879818537042E-002
 0.276633998840011E-002
 0.344376532004706E-002
 0.320649950067897E-002
 0.310543469328037E-002
 0.486181220720076E-002
 0.571104291119601E-002
 0.435996752050392E-002
 0.485299965911679E-002
 0.585063452446267E-002
 0.130704167014111E-001
 0.892220324591208E-002
 0.996724914600901E-002
 0.144635237925180E-001
 0.188035453853699E-001
 0.954398314381275E-002
 0.179458718852255E-001
 0.208693285198667E-002
 0.223942108450404E-002
 0.181011246258325E-002
 0.205104324196346E-002
 0.317963247812036E-002
 0.268737224045068E-002
 0.332123393118398E-002
 0.306475121439897E-002
 0.160623973775540E-002
 0.192562157209376E-002
 0.168875683635396E-002
 0.172049832103527E-002
 0.248351530015218E-002
 0.290463173382293E-002
 0.233371268275984E-002
 0.255359686060626E-002
 0.101815353110016E-002
 0.110197483140315E-002
 0.109276164930481E-002
 0.105784339180892E-002
 0.135821396886445E-002
 0.134885792679815E-002
 0.150646386429521E-002
 0.140663389353622E-002
 0.197875578744118E+000
 0.175844934203214E+000
 0.666539993703091E-001
 0.195504145054403E+000
 0.314657559078839E-001
 0.847014884844705E-001
 0.874087797406127E-001
 0.823630262833569E-001
 0.525600771403421E-002
 0.402209328344770E-002
 0.584408596149909E-002
 0.494305680424169E-002
 0.548904378331043E-002
 0.382356650128152E-002
 0.398344982099177E-002
 0.423006390060677E-002
 0.414879215732471E-002
 0.384390499171085E-002
 0.494928765836313E-002
 0.416506251076951E-002
 0.217398863657527E-001
 0.197043749904959E-001
 0.177207943036244E-001
 0.184195084018292E-001
 0.766760718293265E-002
 0.318158965942167E-002
 0.317577392355912E-002
 0.345461382178925E-002
 0.106896798933176E-002
 0.103428672272332E-002
 0.911865042259196E-003
 0.998041385955982E-003
 0.177056171306690E-001
 0.207253731994040E-001
 0.136617085234522E-001
 0.235772877003658E-001
 0.756020379940476E-003
 0.780895611534703E-003
 0.618747398174074E-003
 0.687772379205137E-003
 0.101876179468560E-002
 0.165049395751906E-002
 0.178620016920536E-002
 0.140497391168830E-002
 0.125460807887210E-002
 0.160210818684021E-002
 0.164931762640792E-002
 0.147901994720484E-002
 0.829534923338725E-002
 0.299624988940091E-002
 0.708362184548540E-002
 0.770662985977569E-002
 0.538854650294697E-003
 0.515170833284600E-003
 0.557344855701999E-003
 0.533158401133242E-003
 0.727038197291389E-003
 0.618221122942169E-003
 0.585806575668133E-003
 0.644164295180586E-003
 0.123680715213615E-002
 0.145255902695131E-002
 0.149410079033855E-002
 0.137620286284890E-002
 0.653893313968634E-003
 0.770134022029708E-003
 0.746705712360234E-003
 0.711885592755475E-003
 0.972466058347866E-003
 0.887280979124085E-003
 0.157341374124545E-002
 0.107881744111256E-002
 0.123138202224457E-002
 0.133921081158645E-002
 0.140681661222181E-002
 0.131770373632001E-002
 0.503167580049596E-003
 0.508979738076678E-003
 0.519971097325164E-003
 0.508672004940048E-003
 0.160272801615149E-002
 0.144462718338510E-002
 0.149845876032654E-002
 0.152138578732377E-002
 0.849000725517497E-003
 0.247202440341293E-002
 0.229744846625581E-002
 0.152814567789935E-002
 0.111723961138106E-002
 0.204245032750054E-002