# vtk DataFile Version 3.0
Unstructured Grid
ASCII
DATASET UNSTRUCTURED_GRID
FIELD FieldData 1
TIME 1 1 float
  0.259931E+02
POINTS         1241 double
 0.000000000000000E+000 0.000000000000000E+000 0.000000000000000E+000
 0.100000000000000E+001 0.000000000000000E+000 0.000000000000000E+000
 0.100000000000000E+001 0.100000000000000E+001 0.000000000000000E+000
 0.000000000000000E+000 0.100000000000000E+001 0.000000000000000E+000
 0.125000000000000E+000 0.250000000000000E+000 0.000000000000000E+000
 0.375000000000000E+000 0.250000000000000E+000 0.000000000000000E+000
 0.375000000000000E+000 0.750000000000000E+000 0.000000000000000E+000
 0.125000000000000E+000 0.750000000000000E+000 0.000000000000000E+000
 0.625000000000000E+000 0.250000000000000E+000 0.000000000000000E+000
 0.875000000000000E+000 0.250000000000000E+000 0.000000000000000E+000
 0.875000000000000E+000 0.750000000000000E+000 0.000000000000000E+000
 0.625000000000000E+000 0.750000000000000E+000 0.000000000000000E+000
 0.100000000000000E+001 0.500000000000000E+000 0.000000000000000E+000
 0.000000000000000E+000 0.500000000000000E+000 0.000000000000000E+000
 0.500000000000000E+000 0.000000000000000E+000 0.000000000000000E+000
 0.125000000000000E+000 0.500000000000000E+000 0.000000000000000E+000
 0.000000000000000E+000 0.750000000000000E+000 0.000000000000000E+000
 0.000000000000000E+000 0.250000000000000E+000 0.000000000000000E+000
 0.000000000000000E+000 0.875000000000000E+000 0.000000000000000E+000
 0.308529810216860E+000 0.500255759132561E+000 0.000000000000000E+000
 0.250000000000000E+000 0.000000000000000E+000 0.000000000000000E+000
 0.125000000000000E+000 0.375000000000000E+000 0.000000000000000E+000
 0.125000000000000E+000 0.625000000000000E+000 0.000000000000000E+000
 0.000000000000000E+000 0.375000000000000E+000 0.000000000000000E+000
 0.000000000000000E+000 0.437500000000000E+000 0.000000000000000E+000
 0.625000000000000E-001 0.406250000000000E+000 0.000000000000000E+000
 0.125000000000000E+000 0.437500000000000E+000 0.000000000000000E+000
 0.216796875000000E+000 0.382812500000000E+000 0.000000000000000E+000
 0.183593750000000E+000 0.468750000000000E+000 0.000000000000000E+000
 0.375000000000000E+000 0.500000000000000E+000 0.000000000000000E+000
 0.250000000000000E+000 0.468750000000000E+000 0.000000000000000E+000
 0.625000000000000E-001 0.481770833333333E+000 0.000000000000000E+000
 0.184176834650379E+000 0.540399924344460E+000 0.000000000000000E+000
 0.216796875000000E+000 0.432195490056818E+000 0.000000000000000E+000
 0.168571309840426E+000 0.406250000000000E+000 0.000000000000000E+000
 0.125000000000000E+000 0.687500000000000E+000 0.000000000000000E+000
 0.255828208111702E+000 0.540763692652926E+000 0.000000000000000E+000
 0.375000000000000E+000 0.375000000000000E+000 0.000000000000000E+000
 0.375000000000000E+000 0.625000000000000E+000 0.000000000000000E+000
 0.220170948184400E+000 0.507406813570504E+000 0.000000000000000E+000
 0.219557967718869E+000 0.628145457476636E+000 0.000000000000000E+000
 0.125000000000000E+000 0.562500000000000E+000 0.000000000000000E+000
 0.000000000000000E+000 0.625000000000000E+000 0.000000000000000E+000
 0.375000000000000E+000 0.437500000000000E+000 0.000000000000000E+000
 0.280323303380492E+000 0.407503995028409E+000 0.000000000000000E+000
 0.375000000000000E+000 0.562500000000000E+000 0.000000000000000E+000
 0.219817452482738E+000 0.577034793653623E+000 0.000000000000000E+000
 0.885901781235304E-001 0.531250000000000E+000 0.000000000000000E+000
 0.312500000000000E+000 0.250000000000000E+000 0.000000000000000E+000
 0.297268942273640E+000 0.626076494243052E+000 0.000000000000000E+000
 0.168732375746058E+000 0.593750000000000E+000 0.000000000000000E+000
 0.173890458776596E+000 0.343750000000000E+000 0.000000000000000E+000
 0.183963193611824E+000 0.278873942859495E+000 0.000000000000000E+000
 0.250000000000000E+000 0.250000000000000E+000 0.000000000000000E+000
 0.237162500098357E+000 0.317347265649589E+000 0.000000000000000E+000
 0.250000000000000E+000 0.750000000000000E+000 0.000000000000000E+000
 0.292902283271084E+000 0.575476271929907E+000 0.000000000000000E+000
 0.125000000000000E+000 0.312500000000000E+000 0.000000000000000E+000
 0.585937500000000E-001 0.335937500000000E+000 0.000000000000000E+000
 0.000000000000000E+000 0.312500000000000E+000 0.000000000000000E+000
 0.336992576921227E+000 0.687500000000000E+000 0.000000000000000E+000
 0.312500000000000E+000 0.750000000000000E+000 0.000000000000000E+000
 0.270599706447422E+000 0.686880677247748E+000 0.000000000000000E+000
 0.500000000000000E+000 0.100000000000000E+001 0.000000000000000E+000
 0.250000000000000E+000 0.100000000000000E+001 0.000000000000000E+000
 0.375000000000000E+000 0.100000000000000E+001 0.000000000000000E+000
 0.281250000000000E+000 0.830729166666667E+000 0.000000000000000E+000
 0.343750000000000E+000 0.312500000000000E+000 0.000000000000000E+000
 0.318389033445014E+000 0.364242983277493E+000 0.000000000000000E+000
 0.267787317245899E+000 0.358095790057897E+000 0.000000000000000E+000
 0.289796410792034E+000 0.300414294603983E+000 0.000000000000000E+000
 0.274503756719177E+000 0.737152390322435E-001 0.000000000000000E+000
 0.343750000000000E+000 0.183159722222222E+000 0.000000000000000E+000
 0.246744791666667E+000 0.146267361111111E+000 0.000000000000000E+000
 0.485980902777778E+000 0.146267361111111E+000 0.000000000000000E+000
 0.302262721771688E+000 0.146267361111111E+000 0.000000000000000E+000
 0.274503756719177E+000 0.197313658770435E+000 0.000000000000000E+000
 0.375000000000000E+000 0.000000000000000E+000 0.000000000000000E+000
 0.420862160086615E+000 0.187832617434252E+000 0.000000000000000E+000
 0.384683294119816E+000 0.146267361111111E+000 0.000000000000000E+000
 0.330565923051619E+000 0.413335216176427E+000 0.000000000000000E+000
 0.352621063931298E+000 0.818811625318066E+000 0.000000000000000E+000
 0.312179705605879E+000 0.796288985503351E+000 0.000000000000000E+000
 0.500000000000000E+000 0.828697389616904E+000 0.000000000000000E+000
 0.427559261986282E+000 0.805138192500353E+000 0.000000000000000E+000
 0.399035374849065E+000 0.860999763838749E+000 0.000000000000000E+000
 0.312500000000000E+000 0.000000000000000E+000 0.000000000000000E+000
 0.187500000000000E+000 0.820606518817204E+000 0.000000000000000E+000
 0.466707069430364E+000 0.898575881689250E+000 0.000000000000000E+000
 0.511172798160702E+000 0.257526753061783E+000 0.000000000000000E+000
 0.453250172578119E+000 0.849294180402265E+000 0.000000000000000E+000
 0.937500000000000E-001 0.504496261452806E-001 0.000000000000000E+000
 0.403162177800535E+000 0.933291523780214E+000 0.000000000000000E+000
 0.437500000000000E+000 0.100000000000000E+001 0.000000000000000E+000
 0.312500000000000E+000 0.934315683855312E+000 0.000000000000000E+000
 0.453353205989905E+000 0.949647808263675E+000 0.000000000000000E+000
 0.358054120979715E+000 0.953547171775243E+000 0.000000000000000E+000
 0.325154404090345E+000 0.873991089312954E+000 0.000000000000000E+000
 0.367644435624882E+000 0.899055397729593E+000 0.000000000000000E+000
 0.236990017361111E+000 0.801449092741935E+000 0.000000000000000E+000
 0.443167922913219E+000 0.252288460541578E+000 0.000000000000000E+000
 0.477263196714215E+000 0.204401840413902E+000 0.000000000000000E+000
 0.562394794036017E+000 0.187447086349591E+000 0.000000000000000E+000
 0.625000000000000E+000 0.375000000000000E+000 0.000000000000000E+000
 0.407024191230044E+000 0.312500000000000E+000 0.000000000000000E+000
 0.474084945258901E+000 0.294963270028168E+000 0.000000000000000E+000
 0.216342369774119E+000 0.930487241414522E-001 0.000000000000000E+000
 0.157072243143605E+000 0.162201579117130E+000 0.000000000000000E+000
 0.187500000000000E+000 0.000000000000000E+000 0.000000000000000E+000
 0.174352819470591E+000 0.117036261141583E+000 0.000000000000000E+000
 0.125000000000000E+000 0.000000000000000E+000 0.000000000000000E+000
 0.218750000000000E+000 0.413079239859885E-001 0.000000000000000E+000
 0.131982343008202E+000 0.962324019836500E-001 0.000000000000000E+000
 0.866442243142230E-001 0.109366815743071E+000 0.000000000000000E+000
 0.000000000000000E+000 0.125000000000000E+000 0.000000000000000E+000
 0.156250000000000E+000 0.557461246091935E-001 0.000000000000000E+000
 0.343473007945752E+000 0.889135573360382E-001 0.000000000000000E+000
 0.316206161479800E+000 0.485604570335434E-001 0.000000000000000E+000
 0.430629647389619E+000 0.697713778434944E-001 0.000000000000000E+000
 0.391175490408355E+000 0.981202752650288E-001 0.000000000000000E+000
 0.444501950008550E+000 0.736368377006958E+000 0.000000000000000E+000
 0.398829470438439E+000 0.687500000000000E+000 0.000000000000000E+000
 0.513688817046671E+000 0.757625009132424E+000 0.000000000000000E+000
 0.625000000000000E+000 0.500000000000000E+000 0.000000000000000E+000
 0.473588841595499E+000 0.786756047776317E+000 0.000000000000000E+000
 0.478860669310979E+000 0.411527234375853E+000 0.000000000000000E+000
 0.572911532233985E+000 0.805885984489640E+000 0.000000000000000E+000
 0.447298813474571E+000 0.682006891579307E+000 0.000000000000000E+000
 0.504019394669429E+000 0.534902916754864E+000 0.000000000000000E+000
 0.486274863958833E+000 0.352843653662708E+000 0.000000000000000E+000
 0.551332894747653E+000 0.390873360445252E+000 0.000000000000000E+000
 0.433027718644055E+000 0.375926460599989E+000 0.000000000000000E+000
 0.437992666628316E+000 0.468750000000000E+000 0.000000000000000E+000
 0.421394775819071E+000 0.423093236096220E+000 0.000000000000000E+000
 0.501785840486804E+000 0.471105361968983E+000 0.000000000000000E+000
 0.433650269193003E+000 0.539110962574808E+000 0.000000000000000E+000
 0.559767288621728E+000 0.501013305633588E+000 0.000000000000000E+000
 0.473047166828055E+000 0.607447789310414E+000 0.000000000000000E+000
 0.551301338206151E+000 0.446268697831009E+000 0.000000000000000E+000
 0.625000000000000E+000 0.625000000000000E+000 0.000000000000000E+000
[...]
CELL_DATA         2368
SCALARS tdens double 1
LOOKUP_TABLE default
 0.185460310602501E-004
 0.338664670553818E-004
 0.106547114245748E-004
 0.205834479167800E-004
 0.423807236812160E-005
 0.497143572615373E-005
 0.460275279724300E-005
 0.458499642710947E-005
 0.185119118696871E-001
 0.518980049780028E-001
 0.415877688358542E-002
 0.315631721854287E-001
 0.123970460817633E+001
 0.119280015441225E+000
 0.801365663181429E+000
 0.684894933322869E-001
 0.817894136783749E-003
 0.384789081824698E-003
 0.539770990258580E-003
 0.572828363483295E-003
 0.164972469044746E-005
 0.155586556649588E-005
 0.157204986343558E-005
 0.159333102460045E-005
 0.780991658852195E-005
 0.297847416747660E-004
 0.173641060393046E-004
 0.132886329344290E-004
 0.367872933542726E-003
 0.377201031289757E-003
 0.170623727957117E-002
 0.422266675483651E-003
 0.247955524084800E-003
 0.309920134644640E-003
 0.174252390971450E-003
 0.227851064543017E-003
 0.455595840268919E-005
 0.425062197810815E-005
 0.469867240832186E-005
 0.447641626237240E-005
 0.494761059883955E-005
 0.538681877130247E-005
 0.571983610727547E-005
 0.531982644146501E-005
 0.222275817401636E-004
 0.185564321218634E-004
 0.133684184031796E-004
 0.170931311276319E-004
 0.334678862818710E-001
 0.316634332865057E-001
 0.135113212687396E-001
 0.312720298566210E-001
 0.368774352312607E-004
 0.326370717551861E-004
 0.527345822577919E-004
 0.363256949290004E-004
 0.153177069406520E-005
 0.149818759785888E-005
 0.153546887334082E-005
 0.151397842136895E-005
 0.594536971409907E-005
 0.707602974054076E-005
 0.614745915113075E-005
 0.644183571080925E-005
 0.944652215466840E-005
 0.759504534260900E-005
 0.102856535519521E-004
 0.893749096733123E-005
 0.202057669511309E-005
 0.213774112285744E-005
 0.208992173961084E-005
 0.206432716694174E-005
 0.241852123197791E-005
 0.356871047604326E-005
 0.222631438763733E-005
 0.249057487500701E-005
 0.193775610039049E-002
 0.114292992147027E-002
 0.409052472606319E-003
 0.118993818441205E-002
 0.128178292598978E-003
 0.577113151767876E-003
 0.138869994445724E-003
 0.136942212800356E-003
 0.489842512248509E-005
 0.304752276779992E-005
 0.421248254002874E-005
 0.367012128771860E-005
 0.177271253517756E-001
 0.617378714100765E-001
 0.854196479521918E-002
 0.226254970836999E-002
 0.198661645783002E-005
 0.205433940064539E-005
 0.212322143046530E-005
 0.205527636455926E-005
 0.722221330122297E+000
 0.693154164037686E+000
 0.120533342142453E+001
 0.231022020737439E+000
 0.157245781450517E-002
 0.327007899431085E-002
 0.252065022706463E+000
 0.160631005505828E-002
 0.215491398760098E-005
 0.201122950429384E-005
 0.217557293327947E-005
 0.207972639703254E-005
 0.235439169861919E-005
 0.221246045886424E-005
 0.246583163223561E-005
 0.232360203400268E-005
 0.254981390680867E-005
 0.266799171648604E-005
 0.243443947008980E-005
 0.253881162416879E-005
 0.250338643418477E-004
 0.309799168645231E-004
 0.527653285930164E-004
 0.341864263523707E-004
 0.116944267727792E-003
 0.656363539345484E-004
 0.123744718269227E-003
 0.109381812090899E-003
 0.555577989363964E-005
 0.318296290917929E-005
 0.359308082023911E-005
 0.375500020597936E-005
 0.255370398378166E-005
 0.251404315454793E-005
 0.249687030191556E-005
 0.252423150671090E-005
 0.110191952435426E-001
 0.122171636748356E-002
 0.116279428313798E-002
 0.132581380413573E-002
 0.374780932651384E-005
 0.266187867946541E-005
 0.375236194577599E-005
 0.308566505821142E-005
 0.384272080217490E-005
 0.323625960563545E-005
 0.658921466663019E-005
 0.398959395849584E-005
 0.264174335451895E-005
 0.264770801999463E-005
 0.277935017601787E-005
 0.267578170995906E-005
 0.260352409669312E-005
 0.258574174879077E-005
 0.253244714861431E-005
 0.257385162666142E-005
 0.252402195813637E-005
 0.212017596844951E-005
 0.296675619225545E-005
 0.231921134272463E-005
 0.441929099470444E-002
 0.445636648978337E-003
 0.284327153356303E-003
 0.462261123348655E-002
 0.219308432006251E-001
 0.408998445666050E-002
 0.195827501294840E-001
 0.361074632935521E-002
 0.117619647605745E-001
 0.193087621127879E-001
 0.236533199393721E-001
 0.679432814079109E-001
 0.253656570080075E-002
 0.130460029655318E-002
 0.316244271401439E-005
 0.476415697057421E-003
 0.319137346041081E+000
 0.130294783526959E+000
 0.498758708908979E-001
 0.788029740678851E-001
 0.272417397443997E-001
 0.332715814580581E+000
 0.172811949135824E-001
 0.464482420977712E-001
 0.283680394752772E-003
 0.279591027124350E-003
 0.295524435406343E-002
 0.463458342990708E-002
 0.288584356214775E-005
 0.282972319201311E-005
 0.262059393550921E-005
 0.274506161599239E-005
 0.305577054033827E-004
 0.197061146846493E-004
 0.242321167911780E-004
 0.251345878107007E-004
 0.246261282490023E-005
 0.248024367779149E-005
 0.240400222453986E-005
 0.243183093488704E-005
 0.293168416038670E-005
 0.260901823568472E-005
 0.257092772896922E-005
 0.260474550196426E-005
 0.360851035051120E-003
 0.283242684406950E-003
 0.660866542243288E-002
 0.494522917828227E-002
 0.151276420448934E-003
 0.446364134813157E-004
 0.291678923970865E-002
 0.474760295936510E-004
 0.188857079906385E-002
 0.437400744481994E-001
 0.486419314860050E-002
 0.243112922755865E-001
 0.138206118961488E-002
 0.616332854488157E-003
 0.139946692631822E-002
 0.712556389904793E-003
 0.632742800187378E-002
 0.185179101002292E-003
 0.500820450486038E-003
 0.236125645672453E-003
 0.223036422773335E-002
 0.251808719596272E-003
 0.210645460634830E-003
 0.133834529639982E-002
 0.274346786768667E+000
 0.555561859408876E-002
 0.393435503049881E+000
 0.478102288605529E+000
 0.246687352949898E-005
 0.235294163703327E-005
 0.236115492987167E-005
 0.240036238328239E-005
 0.414006185012537E-002
 0.136372853613571E+000
 0.461794622293406E+000
 0.429398674800836E-002
 0.116234048641080E-004
 0.174244332906609E-004
 0.666295679150757E-005
 0.955858996698832E-005
 0.586962002071201E-005
 0.540380393396562E-005
 0.647593701073637E-005
 0.581026572998379E-005
 0.127248292343865E-004
 0.153543207346009E-004
 0.205724169545680E-004
 0.161089877727941E-004
 0.130494140631592E-002
 0.248820779651151E-002
 0.101486731131597E-002
 0.164189162406433E-002
 0.120721422308575E-004
 0.112283760541389E-004
 0.152167904394056E-004
 0.123202057081603E-004
 0.533700786116839E-002
 0.808594639199267E-001
 0.917352541411055E-002
 0.816233666637691E-002
 0.357899137676161E-001
 0.288710148415632E-001
 0.293959786470131E-001
 0.223268788749518E-001
 0.171233062112202E-002
 0.107536376716783E-001
 0.102867134492275E-002
 0.192887273915651E-002
 0.150305069297935E-003
 0.397652283171975E-003
 0.200929787614152E-003
 0.208434748967615E-003
 0.882598622282618E-004
 0.137181337582765E-001
 0.167070462828507E-002
 0.640396876310142E-003
 0.319929903097989E-004
 0.257411949502738E-004
 0.533445097164986E-004
 0.307865869305843E-004
 0.283398156850604E-005
 0.265792466060759E-005
 0.327212291557831E-005
 0.278219042542498E-005
 0.781642926331116E-002
 0.256194806904025E-002
 0.147496964165741E-002
 0.865827878569043E-003
 0.204604081900066E-002
 0.308818266109299E-002
 0.285838339441130E+000
 0.437044775266896E-002
 0.930157301700347E-003
 0.129712977967697E-002
 0.129385464667857E-002
 0.134294252280885E-002
 0.150360266646695E-003
 0.334291456739801E-004
 0.458800066243360E-004
 0.521394050729848E-004
 0.294906215928809E-003
 0.190802381186364E-003
 0.951396841589874E-003
 0.240468620014622E-003
 0.318188269242589E-002
 0.199783974561730E-001
 0.279953134890400E+001
 0.263546665981041E-001
 0.449641385687167E-003
 0.477570296037644E-003
 0.614426352190359E-003
 0.587506608696813E-003
 0.113529095198294E-002
 0.334792773352046E-002
 0.994195207610782E-003
 0.109884235500523E-002
 0.700650087374478E-002
 0.266973275646174E-004
 0.124948095535551E-002
 0.102700589863778E-002
 0.439913141331713E-005
 0.307481957233415E-005
 0.495223266761082E-005
 0.393972550612826E-005
 0.262351139131057E-005
 0.241766786795772E-005
 0.273364556129754E-005
 0.257738661926061E-005
 0.259095207590933E-001
 0.750026471211492E-002
 0.839483812451781E+000
 0.232309189346895E-001
 0.322255355528355E-003
 0.135442480906606E-003
 0.340599567793098E-003
 0.371303331583036E-003
 0.388004484088443E-002
 0.228059441735648E-002
 0.190242549462062E+000
 0.217480966423777E-002
 0.134739681749519E-003
 0.220067824498307E-003
 0.344990401606322E-003
 0.260201632773217E-003
 0.111062817482697E-001
 0.130971114579868E-003
 0.192265152342254E-002
 0.415813376505982E-002
 0.663382739126968E-004
 0.406056179868163E-004
 0.219294039219998E-003
 0.610996981509202E-004
 0.593860896574676E-003
 0.133525256199360E-003
 0.680086194501810E-002
 0.256217965297030E-002
 0.383091365822109E-003
 0.466034556095576E-003
 0.693539508088735E-003
 0.928744338805558E-003
 0.614898147488068E-005
 0.176654451035957E-004
 0.316023671236005E-004
 0.148646627600398E-004
 0.554872866863947E-002
 0.867499855836100E-002
 0.470635168907772E+000
 0.741197969227579E-002
 0.420680746480684E-004
 0.891426935756674E-004
 0.714590672846058E-004
 0.654170582079998E-004
 0.404829130696331E-003
 0.705019261350848E-003
 0.157849939568965E-002
 0.770024670542545E-003
 0.886431897715663E-002
 0.243838166799462E+000
 0.539399963376202E-001
 0.254552127210989E-003
 0.133540874298360E-004
 0.867775462819461E-005
 0.997432922066515E-005
 0.105626145272158E-004
 0.117044220188669E-002
 0.867311655869541E-003
 0.681733631912035E-003
 0.660764479712041E-003
 0.673687112733366E-002
 0.190360392941339E+000
 0.280678902327479E+000
 0.180257307106110E+000
 0.175681938390215E-002
 0.246462285759211E-002
 0.203706978785879E+001
 0.346069911781727E-002
 0.471270782650143E-003
 0.398238965531643E-003
 0.211921652199620E-003
 0.295036042939804E-003
 0.275906329663208E-004
 0.263628258269724E-004
 0.592196965395046E-005
 0.118850405393038E-004
 0.489826426519110E+000
 0.178051336642223E+000
 0.594310736885044E-001
 0.887208128001351E-001
 0.239157158141846E-005
 0.253483014553753E-005
 0.256112752396678E-005
 0.247916805216035E-005
 0.270545395203007E-005
 0.298518781540129E-005
 0.262599135812815E-005
 0.275945490492126E-005
 0.994815332652318E-003
 0.632801364221854E-002
 0.322122623371550E-002
 0.579494660778962E-002
 0.275339868993801E-005
 0.265615457376871E-005
 0.265442913381711E-005
 0.268681744370237E-005
 0.589679604496058E-003
 0.985288907942586E-003
 0.830955799007219E-003
 0.106459017379555E-002
 0.526339028580022E-002
 0.139966190964812E+000
 0.111107988889037E+000
 0.161472984932060E+000
 0.329660663509348E+000
 0.359270544339669E+000
 0.115108909650941E-002
 0.247257879526909E+000
 0.255962790790939E-003
 0.700926310134531E-003
 0.672189068653625E-002
 0.111349240113933E-001
 0.212461452866918E-003
 0.360755369744312E-003
 0.442458044060240E-003
 0.523010160204374E-003
 0.158333244651917E-003
 0.710870441526631E-004
 0.134407087333537E-003
 0.124751830648897E-003
 0.509234189875611E-004
 0.785827835712694E-004
 0.926052152648006E-004
 0.766616075827456E-004
 0.425590270070915E-003
 0.810889671578947E-003
 0.203818885909973E-002
 0.811008918757643E-003
 0.169447465214474E-004
 0.172334348465113E-004
 0.224767223613998E-004
 0.178859381048024E-004
 0.120297452516096E-004
 0.118949901358045E-004
 0.170115985778874E-004
 0.127876412918067E-004
 0.682341845161767E-001
 0.794297936343748E-002
 0.849910045358490E-002
 0.153217701851424E-001
 0.936344446582449E-003
 0.217950224061431E-003
 0.289455279785362E-003
 0.288488681660766E-003
 0.465615860759616E-004
 0.121573637711552E-003
 0.100421100794605E-003
 0.893672157009058E-004
 0.410543763504063E-003
 0.817109064757616E-003
 0.112265205276107E-002
 0.127348619577709E-002
 0.883987818116105E+000
 0.199442011984578E-001
 0.834508792992801E+000
 0.441911829568729E+000
 0.771258365130164E+000
 0.546124151471778E+000
 0.548626172872844E-002
 0.543827267168008E+000
 0.126307848994237E-003
 0.163859966932290E-003
 0.366707089119210E-003
 0.169662623865241E-003
 0.571065093533058E-003
 0.217945122856371E-003
 0.926889953546639E-003
 0.597013623336328E-003
 0.709889283710210E-005
 0.669322151484400E-005
 0.832031851274075E-005
 0.722830322287091E-005
 0.113194252348568E-004
 0.149478610714509E-004
 0.107075795162301E-004
 0.119759519061528E-004
 0.392551465252857E-002
 0.327744558242751E+000
 0.195223611944005E-003
 0.423010472423116E-002
 0.849940749050375E-005
 0.141873820343187E-004
 0.885871598601030E-005
 0.985532354847876E-005
 0.870333512958991E-002
 0.254368489630903E-003
 0.734993221642827E-003
 0.973252752251274E-002
 0.275967108615316E-005
 0.208426672028294E-005
 0.379764036170756E-005
 0.260883181020418E-005
 0.743610344981652E-005
 0.884710006601525E-005
 0.756339167034747E-005
 0.785034914467375E-005
 0.128433383238102E-004
 0.108753880051155E-004
 0.964541106761570E-005
 0.108146549039600E-004
 0.613185216219974E-004
 0.282169927397306E-004
 0.586460330319842E-004
 0.497910815897518E-004
 0.515789921323655E-004
 0.153082280728121E-004
 0.100717921808884E-004
 0.145762105340464E-004
 0.644809497851622E-004
 0.293426167844180E-004
 0.629808113342837E-004
 0.459935099300531E-004
 0.517135624817263E-004
 0.242400138924098E-004
 0.236014361789676E-004
 0.272152546963833E-004
 0.300536875166367E-005
 0.299754963151629E-005
 0.366058189500997E-005
 0.314364716109636E-005
 0.653564331533497E-004
 0.352281116278525E-004
 0.561173409346918E-004
 0.553520070993902E-004
 0.164286810723635E-004
 0.164109968077015E-004
 0.114864055840913E-004
 0.145638760389208E-004
 0.634044697433710E-005
 0.848365089320499E-005
 0.799342163221572E-005
 0.754926764941227E-005
 0.246068170275654E-003
 0.134767378553920E-003
 0.230178338460337E-003
 0.216592196116154E-003
 0.704237274046837E-005
 0.927358026967449E-005
 0.889041334511728E-005
 0.831150658826982E-005
 0.678642285580219E-004
 0.422450746835142E-004
 0.588007199647975E-004
 0.606356786369863E-004
 0.867853274827027E-005
 0.769719285760150E-005
 0.727928303552371E-005
 0.784612127575508E-005
 0.379984602351078E-003
 0.323221705300014E-003
 0.778677695717785E-003
 0.480177825780119E-003
 0.226680962201749E-004
 0.330901923508130E-004
 0.189154341463075E-004
 0.229404039603672E-004
 0.398111344355687E-003
 0.162274331065776E-003
 0.391637961038927E-003
 0.388715852361039E-003
 0.108741766474727E-001
 0.138154056141765E-002
 0.425067883987333E+000
 0.802144191063285E-002
 0.124943821514317E-003
 0.218216063893487E-003
 0.142307381401974E-003
 0.160211930642589E-003
 0.346071463667211E-004
 0.629430279055310E-004
 0.211784713946809E-004
 0.303214764914929E-004
 0.262627921226081E-002
 0.151336064966196E+000
 0.226389772062977E+000
 0.822614393951576E-001
 0.324368403975913E-004
 0.259131540119991E-004
 0.192816291303481E-004
 0.259570641398096E-004
 0.917955962011698E-004
 0.176328430190507E-003
 0.200664943705955E-003
 0.167094636940034E-003
 0.345436798967004E-005
 0.480034605339623E-005
 0.754553276441338E-005
 0.456281716279677E-005
 0.104185064211165E-004
 0.112420319386547E-004
 0.130339127459208E-004
 0.117889552070357E-004
 0.196930133119685E-005
 0.178516704378276E-005
 0.193371448472075E-005
 0.189584094820258E-005
 0.146014174480249E-003
 0.757215311076449E-004
 0.674252092798037E-004
 0.792996420299924E-004
 0.633037094133745E-005
 0.354702212269454E-005
 0.427751333527779E-005
 0.449179472266754E-005
 0.642090260035788E-004
 0.526724427771819E-004
 0.938039721986809E-004
 0.597600113217116E-004
 0.108666450431935E-004
 0.117014064337026E-004
 0.141848773994815E-004
 0.120238459115579E-004
 0.187660578163269E-005
 0.196059728096450E-005
 0.233226345685273E-005
 0.205859696383979E-005
 0.418503106453083E-004
 0.497863038724280E-004
 0.108508473751316E-003
 0.553204205835160E-004
 0.453213388033046E-004
 0.527573416412457E-004
 0.330788414892224E-004
 0.415622214055752E-004
 0.939494803734621E-004
 0.970003771101140E-004
 0.667820595700032E-004
 0.103447429791433E-003
 0.147680221445756E-004
 0.131525277716241E-004
 0.144417797960108E-004
 0.138446799692607E-004
 0.557769637440077E-005
 0.619066618987925E-005
 0.674716197081883E-005
 0.618036288695726E-005
 0.918626177985179E-004
 0.982618310376348E-005
 0.192120777370450E-004
 0.159181517792574E-004
 0.110312966677994E-004
 0.132470455083696E-004
 0.123507621152892E-004
 0.119484497789735E-004
 0.436265396169114E-004
 0.814950805407869E-004
 0.103901644871333E-003
 0.754394509567070E-004
 0.386699937118671E-005
 0.474115490318690E-005
 0.400086716684172E-005
 0.421256023749681E-005
 0.141396734446924E-004
 0.132594419991197E-004
 0.145268233967269E-004
 0.139817207330606E-004
 0.831100292752182E-005
 0.100859435111354E-004
 0.976372965474997E-005
 0.910014994805778E-005
 0.130057926961314E-004
 0.212286006362633E-004
 0.189914346327139E-004
 0.183150298898231E-004
 0.532793635012686E-004
 0.411006622719175E-004
 0.979466487255701E-004
 0.564512587339086E-004
 0.152293841603744E-004
 0.214065061517633E-004
 0.124313710675569E-004
 0.152821755396380E-004
 0.127356603509217E-004
 0.175128583146481E-004
 0.154256784333795E-004
 0.149938551814090E-004
 0.306977585492476E-004
 0.383152365856808E-004
 0.252611355199871E-004
 0.300926554849572E-004
 0.575333566387499E-004
 0.368853344532471E-003
 0.110503958159364E-003
 0.152468138269284E-003
 0.733294187032046E-001
 0.752793661365281E-002
 0.473375129715508E-002
 0.556737818379263E-002
 0.822589170922268E-005
 0.902107870531747E-005
 0.690500848064721E-005
 0.811337535887349E-005
 0.139565201766003E-004
 0.112314768932228E-004
 0.147333950474706E-004
 0.133602092300785E-004
 0.596232862558292E-005
 0.747258922750098E-005
 0.635208772911193E-005
 0.646990522911270E-005
 0.102137419642810E-004
 0.125069244262046E-004
 0.946827031843019E-005
 0.105732985683011E-004
 0.344383832991911E-005
 0.378223572399688E-005
 0.374264517920267E-005
 0.360448880785625E-005
 0.486007726825549E-005
 0.481919237689396E-005
 0.551760858198164E-005
 0.506655879696912E-005
 0.126839020172358E+001
 0.105031610475615E+001
 0.101650459563483E-001
 0.934307126274511E+000
 0.367580295488546E-003
 0.988196235771038E-003
 0.771238399494220E-003
 0.947523736349434E-003
 0.272844246914919E-004
 0.190344116935462E-004
 0.316731937875847E-004
 0.254650582213192E-004
 0.296220090860573E-004
 0.179711050287931E-004
 0.189237707876824E-004
 0.202059581857890E-004
 0.189192115287129E-004
 0.166359330256736E-004
 0.234965380911364E-004
 0.186394833463511E-004
 0.669521837997239E-003
 0.556062037975780E-003
 0.289887226130286E-003
 0.469517632169657E-003
 0.181492910353060E-002
 0.851670592591950E-004
 0.505871400327620E-004
 0.687690807109012E-003
 0.395420838126587E-005
 0.384116072912112E-005
 0.325786259375944E-005
 0.364654225812238E-005
 0.397892216332132E-003
 0.704774200958743E-001
 0.822045430873468E-002
 0.127810276202617E-001
 0.265074394227840E-005
 0.287509699483575E-005
 0.203282807421359E-005
 0.237372441781897E-005
 0.385788778996205E-005
 0.815411594603185E-005
 0.873829422772324E-005
 0.626519971923270E-005
 0.503511272689214E-005
 0.694228884169668E-005
 0.786764334146931E-005
 0.643411845429292E-005
 0.752363472929762E-002
 0.248604293567285E-004
 0.339264078766380E-003
 0.529383604267257E-003
 0.174492930419016E-005
 0.158025117343021E-005
 0.181505122512935E-005
 0.167410374738933E-005
 0.270802387483045E-005
 0.211417101050028E-005
 0.189239215162808E-005
 0.221453482425852E-005
 0.469413737546734E-005
 0.567079413052772E-005
 0.603261306577361E-005
 0.539841606349073E-005
 0.214628884694267E-005
 0.264150546013199E-005
 0.256278132919237E-005
 0.239703835943810E-005
 0.410108207071586E-005
 0.332422630952399E-005
 0.748657048019980E-005
 0.432639311143402E-005
 0.465706659855617E-005
 0.507866969981784E-005
 0.542444830820172E-005
 0.499474699554845E-005
 0.154560753917761E-005
 0.155092014857592E-005
 0.163807518822691E-005
 0.156959167211053E-005
 0.606130461580626E-005
 0.533366822850950E-005
 0.554169623280408E-005
 0.568617474903351E-005
 0.282113680458709E-002
 0.285224602791874E-003
 0.261762063312705E-001
 0.348838178321149E-002
 0.630027391710042E-005
 0.126395665884339E-004