# vtk DataFile Version 3.0
Unstructured Grid
ASCII
DATASET UNSTRUCTURED_GRID
FIELD FieldData 1
TIME 1 1 float
  0.222153E+02
POINTS         1241 double
 0.000000000000000E+000 0.000000000000000E+000 0.000000000000000E+000
 0.100000000000000E+001 0.000000000000000E+000 0.000000000000000E+000
 0.100000000000000E+001 0.100000000000000E+001 0.000000000000000E+000
 0.000000000000000E+000 0.100000000000000E+001 0.000000000000000E+000
 0.125000000000000E+000 0.250000000000000E+000 0.000000000000000E+000
 0.375000000000000E+000 0.250000000000000E+000 0.000000000000000E+000
 0.375000000000000E+000 0.750000000000000E+000 0.000000000000000E+000
 0.125000000000000E+000 0.750000000000000E+000 0.000000000000000E+000
 0.625000000000000E+000 0.250000000000000E+000 0.000000000000000E+000
 0.875000000000000E+000 0.250000000000000E+000 0.000000000000000E+000
 0.875000000000000E+000 0.750000000000000E+000 0.000000000000000E+000
 0.625000000000000E+000 0.750000000000000E+000 0.000000000000000E+000
 0.100000000000000E+001 0.500000000000000E+000 0.000000000000000E+000
 0.000000000000000E+000 0.500000000000000E+000 0.000000000000000E+000
 0.500000000000000E+000 0.000000000000000E+000 0.000000000000000E+000
 0.125000000000000E+000 0.500000000000000E+000 0.000000000000000E+000
 0.000000000000000E+000 0.750000000000000E+000 0.000000000000000E+000
 0.000000000000000E+000 0.250000000000000E+000 0.000000000000000E+000
 0.000000000000000E+000 0.875000000000000E+000 0.000000000000000E+000
 0.308529810216860E+000 0.500255759132561E+000 0.000000000000000E+000
 0.250000000000000E+000 0.000000000000000E+000 0.000000000000000E+000
 0.125000000000000E+000 0.375000000000000E+000 0.000000000000000E+000
 0.125000000000000E+000 0.625000000000000E+000 0.000000000000000E+000
 0.000000000000000E+000 0.375000000000000E+000 0.000000000000000E+000
 0.000000000000000E+000 0.437500000000000E+000 0.000000000000000E+000
 0.625000000000000E-001 0.406250000000000E+000 0.000000000000000E+000
 0.125000000000000E+000 0.437500000000000E+000 0.000000000000000E+000
 0.216796875000000E+000 0.382812500000000E+000 0.000000000000000E+000
 0.183593750000000E+000 0.468750000000000E+000 0.000000000000000E+000
 0.375000000000000E+000 0.500000000000000E+000 0.000000000000000E+000
 0.250000000000000E+000 0.468750000000000E+000 0.000000000000000E+000
 0.625000000000000E-001 0.481770833333333E+000 0.000000000000000E+000
 0.184176834650379E+000 0.540399924344460E+000 0.000000000000000E+000
 0.216796875000000E+000 0.432195490056818E+000 0.000000000000000E+000
 0.168571309840426E+000 0.406250000000000E+000 0.000000000000000E+000
 0.125000000000000E+000 0.687500000000000E+000 0.000000000000000E+000
 0.255828208111702E+000 0.540763692652926E+000 0.000000000000000E+000
 0.375000000000000E+000 0.375000000000000E+000 0.000000000000000E+000
 0.375000000000000E+000 0.625000000000000E+000 0.000000000000000E+000
 0.220170948184400E+000 0.507406813570504E+000 0.000000000000000E+000
 0.219557967718869E+000 0.628145457476636E+000 0.000000000000000E+000
 0.125000000000000E+000 0.562500000000000E+000 0.000000000000000E+000
 0.000000000000000E+000 0.625000000000000E+000 0.000000000000000E+000
 0.375000000000000E+000 0.437500000000000E+000 0.000000000000000E+000
 0.280323303380492E+000 0.407503995028409E+000 0.000000000000000E+000
 0.375000000000000E+000 0.562500000000000E+000 0.000000000000000E+000
 0.219817452482738E+000 0.577034793653623E+000 0.000000000000000E+000
 0.885901781235304E-001 0.531250000000000E+000 0.000000000000000E+000
 0.312500000000000E+000 0.250000000000000E+000 0.000000000000000E+000
 0.297268942273640E+000 0.626076494243052E+000 0.000000000000000E+000
 0.168732375746058E+000 0.593750000000000E+000 0.000000000000000E+000
 0.173890458776596E+000 0.343750000000000E+000 0.000000000000000E+000
 0.183963193611824E+000 0.278873942859495E+000 0.000000000000000E+000
 0.250000000000000E+000 0.250000000000000E+000 0.000000000000000E+000
 0.237162500098357E+000 0.317347265649589E+000 0.000000000000000E+000
 0.250000000000000E+000 0.750000000000000E+000 0.000000000000000E+000
 0.292902283271084E+000 0.575476271929907E+000 0.000000000000000E+000
 0.125000000000000E+000 0.312500000000000E+000 0.000000000000000E+000
 0.585937500000000E-001 0.335937500000000E+000 0.000000000000000E+000
 0.000000000000000E+000 0.312500000000000E+000 0.000000000000000E+000
 0.336992576921227E+000 0.687500000000000E+000 0.000000000000000E+000
 0.312500000000000E+000 0.750000000000000E+000 0.000000000000000E+000
 0.270599706447422E+000 0.686880677247748E+000 0.000000000000000E+000
 0.500000000000000E+000 0.100000000000000E+001 0.000000000000000E+000
 0.250000000000000E+000 0.100000000000000E+001 0.000000000000000E+000
 0.375000000000000E+000 0.100000000000000E+001 0.000000000000000E+000
 0.281250000000000E+000 0.830729166666667E+000 0.000000000000000E+000
 0.343750000000000E+000 0.312500000000000E+000 0.000000000000000E+000
 0.318389033445014E+000 0.364242983277493E+000 0.000000000000000E+000
 0.267787317245899E+000 0.358095790057897E+000 0.000000000000000E+000
 0.289796410792034E+000 0.300414294603983E+000 0.000000000000000E+000
 0.274503756719177E+000 0.737152390322435E-001 0.000000000000000E+000
 0.343750000000000E+000 0.183159722222222E+000 0.000000000000000E+000
 0.246744791666667E+000 0.146267361111111E+000 0.000000000000000E+000
 0.485980902777778E+000 0.146267361111111E+000 0.000000000000000E+000
 0.302262721771688E+000 0.146267361111111E+000 0.000000000000000E+000
 0.274503756719177E+000 0.197313658770435E+000 0.000000000000000E+000
 0.375000000000000E+000 0.000000000000000E+000 0.000000000000000E+000
 0.420862160086615E+000 0.187832617434252E+000 0.000000000000000E+000
 0.384683294119816E+000 0.146267361111111E+000 0.000000000000000E+000
 0.330565923051619E+000 0.413335216176427E+000 0.000000000000000E+000
 0.352621063931298E+000 0.818811625318066E+000 0.000000000000000E+000
 0.312179705605879E+000 0.796288985503351E+000 0.000000000000000E+000
 0.500000000000000E+000 0.828697389616904E+000 0.000000000000000E+000
 0.427559261986282E+000 0.805138192500353E+000 0.000000000000000E+000
 0.399035374849065E+000 0.860999763838749E+000 0.000000000000000E+000
 0.312500000000000E+000 0.000000000000000E+000 0.000000000000000E+000
 0.187500000000000E+000 0.820606518817204E+000 0.000000000000000E+000
 0.466707069430364E+000 0.898575881689250E+000 0.000000000000000E+000
 0.511172798160702E+000 0.257526753061783E+000 0.000000000000000E+000
 0.453250172578119E+000 0.849294180402265E+000 0.000000000000000E+000
 0.937500000000000E-001 0.504496261452806E-001 0.000000000000000E+000
 0.403162177800535E+000 0.933291523780214E+000 0.000000000000000E+000
 0.437500000000000E+000 0.100000000000000E+001 0.000000000000000E+000
 0.312500000000000E+000 0.934315683855312E+000 0.000000000000000E+000
 0.453353205989905E+000 0.949647808263675E+000 0.000000000000000E+000
 0.358054120979715E+000 0.953547171775243E+000 0.000000000000000E+000
 0.325154404090345E+000 0.873991089312954E+000 0.000000000000000E+000
 0.367644435624882E+000 0.899055397729593E+000 0.000000000000000E+000
 0.236990017361111E+000 0.801449092741935E+000 0.000000000000000E+000
 0.443167922913219E+000 0.252288460541578E+000 0.000000000000000E+000
 0.477263196714215E+000 0.204401840413902E+000 0.000000000000000E+000
 0.562394794036017E+000 0.187447086349591E+000 0.000000000000000E+000
 0.625000000000000E+000 0.375000000000000E+000 0.000000000000000E+000
 0.407024191230044E+000 0.312500000000000E+000 0.000000000000000E+000
 0.474084945258901E+000 0.294963270028168E+000 0.000000000000000E+000
 0.216342369774119E+000 0.930487241414522E-001 0.000000000000000E+000
 0.157072243143605E+000 0.162201579117130E+000 0.000000000000000E+000
 0.187500000000000E+000 0.000000000000000E+000 0.000000000000000E+000
 0.174352819470591E+000 0.117036261141583E+000 0.000000000000000E+000
 0.125000000000000E+000 0.000000000000000E+000 0.000000000000000E+000
 0.218750000000000E+000 0.413079239859885E-001 0.000000000000000E+000
 0.131982343008202E+000 0.962324019836500E-001 0.000000000000000E+000
 0.866442243142230E-001 0.109366815743071E+000 0.000000000000000E+000
 0.000000000000000E+000 0.125000000000000E+000 0.000000000000000E+000
 0.156250000000000E+000 0.557461246091935E-001 0.000000000000000E+000
 0.343473007945752E+000 0.889135573360382E-001 0.000000000000000E+000
 0.316206161479800E+000 0.485604570335434E-001 0.000000000000000E+000
 0.430629647389619E+000 0.697713778434944E-001 0.000000000000000E+000
 0.391175490408355E+000 0.981202752650288E-001 0.000000000000000E+000
 0.444501950008550E+000 0.736368377006958E+000 0.000000000000000E+000
 0.398829470438439E+000 0.687500000000000E+000 0.000000000000000E+000
 0.513688817046671E+000 0.757625009132424E+000 0.000000000000000E+000
 0.625000000000000E+000 0.500000000000000E+000 0.000000000000000E+000
 0.473588841595499E+000 0.786756047776317E+000 0.000000000000000E+000
 0.478860669310979E+000 0.411527234375853E+000 0.000000000000000E+000
 0.572911532233985E+000 0.805885984489640E+000 0.000000000000000E+000
 0.447298813474571E+000 0.682006891579307E+000 0.000000000000000E+000
 0.504019394669429E+000 0.534902916754864E+000 0.000000000000000E+000
 0.486274863958833E+000 0.352843653662708E+000 0.000000000000000E+000
 0.551332894747653E+000 0.390873360445252E+000 0.000000000000000E+000
 0.433027718644055E+000 0.375926460599989E+000 0.000000000000000E+000
 0.437992666628316E+000 0.468750000000000E+000 0.000000000000000E+000
 0.421394775819071E+000 0.423093236096220E+000 0.000000000000000E+000
 0.501785840486804E+000 0.471105361968983E+000 0.000000000000000E+000
 0.433650269193003E+000 0.539110962574808E+000 0.000000000000000E+000
 0.559767288621728E+000 0.501013305633588E+000 0.000000000000000E+000
 0.473047166828055E+000 0.607447789310414E+000 0.000000000000000E+000
 0.551301338206151E+000 0.446268697831009E+000 0.000000000000000E+000
 0.625000000000000E+000 0.625000000000000E+000 0.000000000000000E+000
[...]
CELL_DATA         2368
SCALARS tdens double 1
LOOKUP_TABLE default
 0.343009955388213E-003
 0.520635267310720E-003
 0.205767245105952E-003
 0.363229333131188E-003
 0.908950225686946E-004
 0.106277983888449E-003
 0.985152644871015E-004
 0.981925326886023E-004
 0.192102263718502E-001
 0.410836399097002E-001
 0.156973457944408E-001
 0.219410334452819E-001
 0.133503855473654E+000
 0.149861666722486E+000
 0.736257736101192E-001
 0.551669188938739E-001
 0.144415463356782E-001
 0.660227035470900E-002
 0.993622843444425E-002
 0.103273580976498E-001
 0.360067916127756E-004
 0.339960689580656E-004
 0.343529536636632E-004
 0.348055897591477E-004
 0.118539341787256E-003
 0.280259225634874E-003
 0.188958650699523E-003
 0.160275400113316E-003
 0.482640322063512E-002
 0.510004634100124E-002
 0.132304767878901E-001
 0.563854643973759E-002
 0.384615734067034E-002
 0.522962491318221E-002
 0.301014170648751E-002
 0.367601083472518E-002
 0.976454878332058E-004
 0.912525987688251E-004
 0.100605112439654E-003
 0.959827616764133E-004
 0.105731294044205E-003
 0.114970277024095E-003
 0.121790180911566E-003
 0.113479769690124E-003
 0.453659475609220E-003
 0.377044756405277E-003
 0.276922091720867E-003
 0.350016539032293E-003
 0.792240622850682E-001
 0.295911018630226E-001
 0.293886149271310E-001
 0.485814406531067E-001
 0.771095563539857E-003
 0.686029223556934E-003
 0.110260325334335E-002
 0.762942427335978E-003
 0.334845643342492E-004
 0.327565421511998E-004
 0.335638713606829E-004
 0.330991480973898E-004
 0.126610935958122E-003
 0.150045912774631E-003
 0.130931204792440E-003
 0.136934261470109E-003
 0.193794047104888E-003
 0.157563778766772E-003
 0.206665865696777E-003
 0.183007910129092E-003
 0.438050489779861E-004
 0.463277543885401E-004
 0.451552170725803E-004
 0.447007138687336E-004
 0.491267689250726E-004
 0.635181535367268E-004
 0.464504685378836E-004
 0.501303537204362E-004
 0.135612107335780E-001
 0.918491011068542E-002
 0.521512243755249E-002
 0.962277663233971E-002
 0.230675802183393E-002
 0.845514616195284E-002
 0.232078211751138E-002
 0.246862585825345E-002
 0.899924031408279E-004
 0.656101037179277E-004
 0.737028401787404E-004
 0.727692181443840E-004
 0.294369533908978E-001
 0.474246542340028E-001
 0.112074689915632E-001
 0.836098171843424E-002
 0.432138337419735E-004
 0.444036661750327E-004
 0.461490705698243E-004
 0.445948320254340E-004
 0.164128008713219E+000
 0.354420641399630E+000
 0.727614245852057E+000
 0.207173399910974E+000
 0.161057865111090E-001
 0.206867090656069E-001
 0.939910468038476E-001
 0.155320254538092E-001
 0.468238607872042E-004
 0.438652727672249E-004
 0.472815009827446E-004
 0.453346518832911E-004
 0.489871846414600E-004
 0.470198758456335E-004
 0.519156022987369E-004
 0.490334251233310E-004
 0.553049885521146E-004
 0.576797123870017E-004
 0.526901735777946E-004
 0.550230219322835E-004
 0.499114393901845E-003
 0.620261121401888E-003
 0.101977653782134E-002
 0.680941735468842E-003
 0.221730890389726E-002
 0.129227581809001E-002
 0.232096970185753E-002
 0.207422300782460E-002
 0.110044600700911E-003
 0.674874673199586E-004
 0.758731916922385E-004
 0.784960735803340E-004
 0.551690155683206E-004
 0.545828422441128E-004
 0.542649229935433E-004
 0.547261710715822E-004
 0.445539124833204E-001
 0.156821686126513E-001
 0.144439473909816E-001
 0.167882468671068E-001
 0.677536657014026E-004
 0.575317140106699E-004
 0.678790458108119E-004
 0.638928721800603E-004
 0.781213607267659E-004
 0.681506378308547E-004
 0.123167352204992E-003
 0.814535595317082E-004
 0.567923121131512E-004
 0.570179161455043E-004
 0.595125344651361E-004
 0.575213447646609E-004
 0.562085391865686E-004
 0.558023757665264E-004
 0.549172391421174E-004
 0.556564745739057E-004
 0.540281559614790E-004
 0.454462489928410E-004
 0.586094658808662E-004
 0.494417465765755E-004
 0.452284094735430E-002
 0.118187571054750E-002
 0.462273840510075E-003
 0.249976834572642E-002
 0.173940564717498E-001
 0.395174095386362E-002
 0.196658376784597E-001
 0.503262291648758E-002
 0.180236724140024E-001
 0.440210931283210E-001
 0.758543055382764E-001
 0.961199520134024E-001
 0.266251695068407E-002
 0.735138900999577E-003
 0.633895641252497E-004
 0.801419301796746E-003
 0.218871267776225E+000
 0.814688953615465E-001
 0.116044408385807E+000
 0.677040283370175E-001
 0.965068957134391E-001
 0.874730534541410E-001
 0.933850094234884E-001
 0.145654639335648E+000
 0.443283586905526E-003
 0.470058130154410E-003
 0.596193858622457E-002
 0.454347567968470E-002
 0.614705526025625E-004
 0.596557645997986E-004
 0.561855356591891E-004
 0.585186936773345E-004
 0.626162982325230E-003
 0.409100579020758E-003
 0.500009708831127E-003
 0.517944665109540E-003
 0.536492425219517E-004
 0.539603826768655E-004
 0.525154952817090E-004
 0.530602574935366E-004
 0.603937809886874E-004
 0.563382901620872E-004
 0.552517777107135E-004
 0.560028107131787E-004
 0.524180021656279E-003
 0.463242551482366E-003
 0.572113705318532E-002
 0.431304742909480E-002
 0.666319580148621E-003
 0.387663379395293E-003
 0.603379179470040E-002
 0.369252255305055E-003
 0.365238641807860E-002
 0.258676301519912E-001
 0.402178695794491E-002
 0.163628196115537E-001
 0.107035434005746E-001
 0.783721567007518E-002
 0.163458914518017E-001
 0.834074203391464E-002
 0.893066957731692E-002
 0.153849531692515E-002
 0.155023249314799E-002
 0.152542559948517E-002
 0.865852830298608E-002
 0.121073337788403E-002
 0.226934296868545E-002
 0.464945145355422E-002
 0.235565312782783E+000
 0.424311052164540E-001
 0.324552503088497E+000
 0.425937363251700E+000
 0.536635429194972E-004
 0.510420389850671E-004
 0.515084953490856E-004
 0.522630799245464E-004
 0.411194635158423E-001
 0.762739123317936E-001
 0.468785041176806E+000
 0.383600709517644E-001
 0.212313677161503E-003
 0.286973761423473E-003
 0.118910678551743E-003
 0.176160530575997E-003
 0.122158930732729E-003
 0.113545174369434E-003
 0.134542340605925E-003
 0.121513374884618E-003
 0.264711941234836E-003
 0.319134145774649E-003
 0.422323551693274E-003
 0.333883322535812E-003
 0.167588774635033E-001
 0.236718681738167E-001
 0.123296483078177E-001
 0.191709155561355E-001
 0.253791260512555E-003
 0.236546211933790E-003
 0.317982733209149E-003
 0.259146748324576E-003
 0.161573067538284E-001
 0.461252243549235E-001
 0.292656048069727E-001
 0.288467843561983E-001
 0.298312600139277E-001
 0.308472758289662E-001
 0.210081939772753E-001
 0.261776187624606E-001
 0.940107958584997E-002
 0.266090230474452E-001
 0.670888465210928E-002
 0.104435929464110E-001
 0.245415819614301E-002
 0.567031879704095E-002
 0.318046666504299E-002
 0.333804072598960E-002
 0.123777595670395E-002
 0.113430843977355E-001
 0.533041369411074E-002
 0.470955648231386E-002
 0.356857630700207E-003
 0.370240950611823E-003
 0.611586605814433E-003
 0.386691258647434E-003
 0.611282481571726E-004
 0.574981408456798E-004
 0.668576394170804E-004
 0.600255406572509E-004
 0.285534595291589E-001
 0.885135139471675E-002
 0.730320492673201E-002
 0.499512449998060E-002
 0.192989676037276E-001
 0.222557059024454E-001
 0.675544399550740E-001
 0.277595563625399E-001
 0.102616086115580E-001
 0.125401231595923E-001
 0.141079691446887E-001
 0.145617219310779E-001
 0.214510356181375E-002
 0.540009021131107E-003
 0.740555439700654E-003
 0.843905475940213E-003
 0.404616252971070E-002
 0.235893062414597E-002
 0.104897312591505E-001
 0.323967108416067E-002
 0.503120922315038E-001
 0.168245315092875E+000
 0.168456390152696E+001
 0.206202241916208E+000
 0.383844309135603E-002
 0.565145176959214E-002
 0.690311378082662E-002
 0.660895576418454E-002
 0.908593914218150E-002
 0.230580420871385E-001
 0.120812718201920E-001
 0.118198599970560E-001
 0.677435071518377E-002
 0.343347652353795E-003
 0.402548665572749E-002
 0.446329253063592E-002
 0.848082752991891E-004
 0.642220589934634E-004
 0.101199675248429E-003
 0.796243743785208E-004
 0.560977923934218E-004
 0.521367003609409E-004
 0.590156926503354E-004
 0.554235097401257E-004
 0.994459096021887E-001
 0.625168712917508E-001
 0.270437826562193E+000
 0.101036047696688E+000
 0.534597297363319E-002
 0.247922036380624E-002
 0.587366667702943E-002
 0.613586409052365E-002
 0.124193977722821E-001
 0.859687200910137E-002
 0.307887096756246E-001
 0.100061146079567E-001
 0.127647362947413E-002
 0.271963364239881E-002
 0.414792897675017E-002
 0.312810966895095E-002
 0.102709522556361E-001
 0.146788044353083E-002
 0.175477058629681E-002
 0.332547277734356E-002
 0.792330150144907E-003
 0.662566069748495E-003
 0.260121221556084E-002
 0.828590280045973E-003
 0.622780489463553E-002
 0.170220018693573E-002
 0.120546694761774E-001
 0.130753615082527E-001
 0.539332304346688E-002
 0.688444073067900E-002
 0.102802965390746E-001
 0.126050415080449E-001
 0.117668001369261E-003
 0.267146600324597E-003
 0.456400878928817E-003
 0.238219224932900E-003
 0.551132172957974E-001
 0.737723561793008E-001
 0.233125308576035E+000
 0.730361464421563E-001
 0.842656421051192E-003
 0.174241889517807E-002
 0.138771266132884E-002
 0.127695194484034E-002
 0.706526820629062E-002
 0.110562906097717E-001
 0.217285287409626E-001
 0.121693455343933E-001
 0.574080549490422E-002
 0.219030492405925E+000
 0.232115878087433E-001
 0.223221816724647E-002
 0.265336086940820E-003
 0.178048068612478E-003
 0.205388177127702E-003
 0.214734237992131E-003
 0.686277130748330E-002
 0.523946571072546E-002
 0.432991967068716E-002
 0.437921626186820E-002
 0.227241287444693E-001
 0.847363165489390E-001
 0.904726549029641E-001
 0.709246494515210E-001
 0.222864936134080E-001
 0.388412678735098E-001
 0.154198215130114E+001
 0.436355698940239E-001
 0.534259123749609E-002
 0.325521178162846E-002
 0.176546926912812E-002
 0.249464416150425E-002
 0.447782879723925E-003
 0.401227609745784E-003
 0.115077934885158E-003
 0.217346733072857E-003
 0.225118771369347E+000
 0.142599746312051E+000
 0.335763341543482E-001
 0.890037637404531E-001
 0.515994047511090E-004
 0.546953462962883E-004
 0.551534673821068E-004
 0.534621148737034E-004
 0.583831450744357E-004
 0.640763605485269E-004
 0.565095878483242E-004
 0.593551139539859E-004
 0.664775794646777E-002
 0.219897970039912E-001
 0.186565365939085E-001
 0.232214574664629E-001
 0.590553055860078E-004
 0.571651217720403E-004
 0.570787212627823E-004
 0.577414365678591E-004
 0.425762945960711E-002
 0.632161766981008E-002
 0.546002191594007E-002
 0.630571280192502E-002
 0.156196334047986E-001
 0.268770447475012E-001
 0.281491031403528E-001
 0.334586172719482E-001
 0.924241371561844E-001
 0.744858904463402E-001
 0.136817398658822E-001
 0.806160042212429E-001
 0.283349457179643E-003
 0.411717628071953E-003
 0.298084753791354E-002
 0.393337307180701E-002
 0.153222400236722E-002
 0.266157245224924E-002
 0.289015605672666E-002
 0.290788073894622E-002
 0.250945783763522E-002
 0.126060331568788E-002
 0.222775014449085E-002
 0.204518819511529E-002
 0.943695761033861E-003
 0.138254299513561E-002
 0.165851673448428E-002
 0.136558472775787E-002
 0.575050842433085E-002
 0.969973438576228E-002
 0.158983017785248E-001
 0.914350269261904E-002
 0.337824859339856E-003
 0.342676586017309E-003
 0.439317287732838E-003
 0.355270641259843E-003
 0.242927484082706E-003
 0.239458593890645E-003
 0.336757948864709E-003
 0.257611095479344E-003
 0.357876596480312E-001
 0.728604176561352E-002
 0.707241480809431E-002
 0.947324606285942E-002
 0.148530199792618E-001
 0.404377498217414E-002
 0.524949299518090E-002
 0.529502623756218E-002
 0.940325922468155E-003
 0.237027216332605E-002
 0.196844327813795E-002
 0.174253096818717E-002
 0.581669200188845E-002
 0.118742335767240E-001
 0.139820761318091E-001
 0.163212019399592E-001
 0.286383806867568E+000
 0.116443547313192E+000
 0.175134224926033E+000
 0.154217038320558E+000
 0.339558871181817E+000
 0.293691282988065E+000
 0.550589509758142E-001
 0.268898256622333E+000
 0.234306086996979E-002
 0.307243041109719E-002
 0.628601221229999E-002
 0.315154008554038E-002
 0.948198030749650E-002
 0.405383744472921E-002
 0.148182461057203E-001
 0.994508769076478E-002
 0.149040505288579E-003
 0.141522623522250E-003
 0.173890711513725E-003
 0.152030679971245E-003
 0.235156507182262E-003
 0.304753921630778E-003
 0.221632110324006E-003
 0.247450523206573E-003
 0.285922817217173E-001
 0.141781952976483E+000
 0.283163707786227E-002
 0.322128239350487E-001
 0.172936595115658E-003
 0.274180025682486E-003
 0.176115926802585E-003
 0.197003888774784E-003
 0.140419552313702E-001
 0.481356303965339E-003
 0.109877786474621E-002
 0.874524289687846E-002
 0.586728619729880E-004
 0.446543289963327E-004
 0.789769746244221E-004
 0.552510168190992E-004
 0.158095645018994E-003
 0.187417183017918E-003
 0.160660743588091E-003
 0.166760985652371E-003
 0.268386682609841E-003
 0.227463737743491E-003
 0.202872841346796E-003
 0.226795056252074E-003
 0.113599328649111E-002
 0.557867443447091E-003
 0.112729461048722E-002
 0.939778483696351E-003
 0.684530992814538E-003
 0.261664547660200E-003
 0.191961603776201E-003
 0.256102157155107E-003
 0.942933067869866E-003
 0.533537324365454E-003
 0.109148776854754E-002
 0.763758987289160E-003
 0.932084443193098E-003
 0.458672939731938E-003
 0.462224883514604E-003
 0.524074124967911E-003
 0.645189634834715E-004
 0.642126399071781E-004
 0.774283257650185E-004
 0.671361396691424E-004
 0.115745867132117E-002
 0.663977093861250E-003
 0.100937133761443E-002
 0.997529250473402E-003
 0.331277483199316E-003
 0.324778932098236E-003
 0.235805795259622E-003
 0.293628009426721E-003
 0.134916954872371E-003
 0.179517680035220E-003
 0.169150816547427E-003
 0.159943379523929E-003
 0.353850697513971E-002
 0.216147052927827E-002
 0.330362362783217E-002
 0.317784133688775E-002
 0.148853022309081E-003
 0.194357032052618E-003
 0.185793476052588E-003
 0.174577943797124E-003
 0.140029853720187E-002
 0.880002184805633E-003
 0.122662217577383E-002
 0.125733676196787E-002
 0.180130621483782E-003
 0.159324369961861E-003
 0.151938000375123E-003
 0.163236601778975E-003
 0.468525251007749E-002
 0.411579453324889E-002
 0.701686760430208E-002
 0.561269920622141E-002
 0.441725679881678E-003
 0.627315772686067E-003
 0.373028515548488E-003
 0.447870638047054E-003
 0.573152271129095E-002
 0.258888148984682E-002
 0.508415277885692E-002
 0.530091171773330E-002
 0.284844754559319E-001
 0.151492375998014E-001
 0.678343526439327E-001
 0.285057442691937E-001
 0.203864010745053E-002
 0.325942750244483E-002
 0.240645303189897E-002
 0.260324328821701E-002
 0.606204790630533E-003
 0.108652240249566E-002
 0.400730759579775E-003
 0.550872325922520E-003
 0.113244797873500E-001
 0.182724290743413E-001
 0.163695662253367E-001
 0.158446110618628E-001
 0.616459112362853E-003
 0.501008862626069E-003
 0.380646536159313E-003
 0.501379562989088E-003
 0.155388102903680E-002
 0.268406913444133E-002
 0.295293282727464E-002
 0.255004679055842E-002
 0.727131363427648E-004
 0.994083745367062E-004
 0.138063883389465E-003
 0.939035894796938E-004
 0.212871524993603E-003
 0.228490159787716E-003
 0.263312396421252E-003
 0.239246459017879E-003
 0.426076927072572E-004
 0.387479576664102E-004
 0.419072624021283E-004
 0.410829349855111E-004
 0.230447709990943E-002
 0.131305100070768E-002
 0.119127984153952E-002
 0.137721345402808E-002
 0.126860402467517E-003
 0.755674268512778E-004
 0.892753292045171E-004
 0.937223882607009E-004
 0.119920086853372E-002
 0.978926117919837E-003
 0.170495708463607E-002
 0.111522747279332E-002
 0.228770904609541E-003
 0.246027461452611E-003
 0.296737391042510E-003
 0.252684027109598E-003
 0.408296481176287E-004
 0.426364115039896E-004
 0.504793559468326E-004
 0.446995613876707E-004
 0.841662806948315E-003
 0.100042037543045E-002
 0.210456728717804E-002
 0.111550482987629E-002
 0.836396579929904E-003
 0.956891861590164E-003
 0.627572024359839E-003
 0.770465523282171E-003
 0.176030898947344E-002
 0.188358723429066E-002
 0.126971689413263E-002
 0.193852692553311E-002
 0.297270642565733E-003
 0.266561449117531E-003
 0.290756001426948E-003
 0.279321397177184E-003
 0.115642390191184E-003
 0.127709975449563E-003
 0.139332448069745E-003
 0.127664426179278E-003
 0.117760376064839E-002
 0.182978029738563E-003
 0.288171495012768E-003
 0.273394711835641E-003
 0.224992066436370E-003
 0.267525603922942E-003
 0.250932072171354E-003
 0.242992822912290E-003
 0.812849378851758E-003
 0.143564098303795E-002
 0.180553593793386E-002
 0.133353975762338E-002
 0.831260208109764E-004
 0.101528939448481E-003
 0.859438378261142E-004
 0.904426121580015E-004
 0.285729190870533E-003
 0.268689598082062E-003
 0.292698633435013E-003
 0.282692631697129E-003
 0.170813066624899E-003
 0.205764321922708E-003
 0.199852583123550E-003
 0.186704664703042E-003
 0.260898464858842E-003
 0.414835125794899E-003
 0.374203496583395E-003
 0.360030804401837E-003
 0.971069170327273E-003
 0.767390897613230E-003
 0.168577025337638E-002
 0.103211749044797E-002
 0.299067050818989E-003
 0.415680543047089E-003
 0.248674096893990E-003
 0.302043354822144E-003
 0.257088386389437E-003
 0.347069884638189E-003
 0.308497063197464E-003
 0.299903127292423E-003
 0.586354241054526E-003
 0.720826197642352E-003
 0.489265644213720E-003
 0.575691106400331E-003
 0.902463948893093E-003
 0.398244567242254E-002
 0.172509097597853E-002
 0.217254813398834E-002
 0.325952435262199E-001
 0.171859618909587E-001
 0.756702151920834E-002
 0.141747679965961E-001
 0.173691724992694E-003
 0.189656924635741E-003
 0.146260258533593E-003
 0.171043495760053E-003
 0.291942120166573E-003
 0.236259870332397E-003
 0.308096366385743E-003
 0.279670576030584E-003
 0.126927063008183E-003
 0.158133954936215E-003
 0.134857369203544E-003
 0.137472024549544E-003
 0.215078905961572E-003
 0.261850922497358E-003
 0.199460684912372E-003
 0.222425890926048E-003
 0.741749377047789E-004
 0.813169917391062E-004
 0.804744432624734E-004
 0.775617221549289E-004
 0.103761438223228E-003
 0.102986928117062E-003
 0.117471370539192E-003
 0.108115974471721E-003
 0.109896077821398E+001
 0.837086335773182E+000
 0.187362214420904E-001
 0.968231556699314E+000
 0.514214791092417E-002
 0.153321351870348E-001
 0.131939481615225E-001
 0.146607476600852E-001
 0.559342024163593E-003
 0.394737274811615E-003
 0.648830269164473E-003
 0.522656708352871E-003
 0.606480748611347E-003
 0.372918437532204E-003
 0.392683863751269E-003
 0.419448757322910E-003
 0.393100425106654E-003
 0.347602138489634E-003
 0.485228842590943E-003
 0.388008541423683E-003
 0.981991391879338E-002
 0.868090432126853E-002
 0.493662374978799E-002
 0.730646650054523E-002
 0.322747415388914E-002
 0.471867471594462E-003
 0.511466791499371E-003
 0.682944177147891E-003
 0.833064553203217E-004
 0.809364884689874E-004
 0.694519527478832E-004
 0.771929404137911E-004
 0.514946572737915E-002
 0.622999179760614E-001
 0.141492850150424E-001
 0.199212440145451E-001
 0.572656257008213E-004
 0.617651622939387E-004
 0.441049924889732E-004
 0.512894198220169E-004
 0.828327633706208E-004
 0.154062909786896E-003
 0.163281368542952E-003
 0.126991872569689E-003
 0.103294866815465E-003
 0.138441845623717E-003
 0.150673087990177E-003
 0.128500151211320E-003
 0.543109889767675E-002
 0.366136108816785E-003
 0.175361950296151E-002
 0.182092037653827E-002
 0.377625474342982E-004
 0.344675150951281E-004
 0.392357595195078E-004
 0.363967695599746E-004
 0.577032703622325E-004
 0.454614049208886E-004
 0.411061584275455E-004
 0.476842719578054E-004
 0.979377244061045E-004
 0.117459169274570E-003
 0.123508112029355E-003
 0.111563187248492E-003
 0.465639018170799E-004
 0.569053923882904E-004
 0.553132031689021E-004
 0.518377070588359E-004
 0.866606174067834E-004
 0.715916142706283E-004
 0.156703198703366E-003
 0.928655478924053E-004
 0.973142714185298E-004
 0.106067332228917E-003
 0.112801614816379E-003
 0.104262266515531E-003
 0.336735308603077E-004
 0.338589380208497E-004
 0.355745439459808E-004
 0.341810557131990E-004
 0.127609979976730E-003
 0.112661591600148E-003
 0.117257747030054E-003
 0.119918025772456E-003
 0.138424378356550E-002
 0.765063984757577E-003
 0.103585229208163E-001
 0.267458121509041E-002
 0.120544883135698E-003
 0.236161651415536E-003