# vtk DataFile Version 3.0
Unstructured Grid
ASCII
DATASET UNSTRUCTURED_GRID
FIELD FieldData 1
TIME 1 1 float
  0.179931E+02
POINTS         1241 double
 0.000000000000000E+000 0.000000000000000E+000 0.000000000000000E+000
 0.100000000000000E+001 0.000000000000000E+000 0.000000000000000E+000
 0.100000000000000E+001 0.100000000000000E+001 0.000000000000000E+000
 0.000000000000000E+000 0.100000000000000E+001 0.000000000000000E+000
 0.125000000000000E+000 0.250000000000000E+000 0.000000000000000E+000
 0.375000000000000E+000 0.250000000000000E+000 0.000000000000000E+000
 0.375000000000000E+000 0.750000000000000E+000 0.000000000000000E+000
 0.125000000000000E+000 0.750000000000000E+000 0.000000000000000E+000
 0.625000000000000E+000 0.250000000000000E+000 0.000000000000000E+000
 0.875000000000000E+000 0.250000000000000E+000 0.000000000000000E+000
 0.875000000000000E+000 0.750000000000000E+000 0.000000000000000E+000
 0.625000000000000E+000 0.750000000000000E+000 0.000000000000000E+000
 0.100000000000000E+001 0.500000000000000E+000 0.000000000000000E+000
 0.000000000000000E+000 0.500000000000000E+000 0.000000000000000E+000
 0.500000000000000E+000 0.000000000000000E+000 0.000000000000000E+000
 0.125000000000000E+000 0.500000000000000E+000 0.000000000000000E+000
 0.000000000000000E+000 0.750000000000000E+000 0.000000000000000E+000
 0.000000000000000E+000 0.250000000000000E+000 0.000000000000000E+000
 0.000000000000000E+000 0.875000000000000E+000 0.000000000000000E+000
 0.308529810216860E+000 0.500255759132561E+000 0.000000000000000E+000
 0.250000000000000E+000 0.000000000000000E+000 0.000000000000000E+000
 0.125000000000000E+000 0.375000000000000E+000 0.000000000000000E+000
 0.125000000000000E+000 0.625000000000000E+000 0.000000000000000E+000
 0.000000000000000E+000 0.375000000000000E+000 0.000000000000000E+000
 0.000000000000000E+000 0.437500000000000E+000 0.000000000000000E+000
 0.625000000000000E-001 0.406250000000000E+000 0.000000000000000E+000
 0.125000000000000E+000 0.437500000000000E+000 0.000000000000000E+000
 0.216796875000000E+000 0.382812500000000E+000 0.000000000000000E+000
 0.183593750000000E+000 0.468750000000000E+000 0.000000000000000E+000
 0.375000000000000E+000 0.500000000000000E+000 0.000000000000000E+000
 0.250000000000000E+000 0.468750000000000E+000 0.000000000000000E+000
 0.625000000000000E-001 0.481770833333333E+000 0.000000000000000E+000
 0.184176834650379E+000 0.540399924344460E+000 0.000000000000000E+000
 0.216796875000000E+000 0.432195490056818E+000 0.000000000000000E+000
 0.168571309840426E+000 0.406250000000000E+000 0.000000000000000E+000
 0.125000000000000E+000 0.687500000000000E+000 0.000000000000000E+000
 0.255828208111702E+000 0.540763692652926E+000 0.000000000000000E+000
 0.375000000000000E+000 0.375000000000000E+000 0.000000000000000E+000
 0.375000000000000E+000 0.625000000000000E+000 0.000000000000000E+000
 0.220170948184400E+000 0.507406813570504E+000 0.000000000000000E+000
 0.219557967718869E+000 0.628145457476636E+000 0.000000000000000E+000
 0.125000000000000E+000 0.562500000000000E+000 0.000000000000000E+000
 0.000000000000000E+000 0.625000000000000E+000 0.000000000000000E+000
 0.375000000000000E+000 0.437500000000000E+000 0.000000000000000E+000
 0.280323303380492E+000 0.407503995028409E+000 0.000000000000000E+000
 0.375000000000000E+000 0.562500000000000E+000 0.000000000000000E+000
 0.219817452482738E+000 0.577034793653623E+000 0.000000000000000E+000
 0.885901781235304E-001 0.531250000000000E+000 0.000000000000000E+000
 0.312500000000000E+000 0.250000000000000E+000 0.000000000000000E+000
 0.297268942273640E+000 0.626076494243052E+000 0.000000000000000E+000
 0.168732375746058E+000 0.593750000000000E+000 0.000000000000000E+000
 0.173890458776596E+000 0.343750000000000E+000 0.000000000000000E+000
 0.183963193611824E+000 0.278873942859495E+000 0.000000000000000E+000
 0.250000000000000E+000 0.250000000000000E+000 0.000000000000000E+000
 0.237162500098357E+000 0.317347265649589E+000 0.000000000000000E+000
 0.250000000000000E+000 0.750000000000000E+000 0.000000000000000E+000
 0.292902283271084E+000 0.575476271929907E+000 0.000000000000000E+000
 0.125000000000000E+000 0.312500000000000E+000 0.000000000000000E+000
 0.585937500000000E-001 0.335937500000000E+000 0.000000000000000E+000
 0.000000000000000E+000 0.312500000000000E+000 0.000000000000000E+000
 0.336992576921227E+000 0.687500000000000E+000 0.000000000000000E+000
 0.312500000000000E+000 0.750000000000000E+000 0.000000000000000E+000
 0.270599706447422E+000 0.686880677247748E+000 0.000000000000000E+000
 0.500000000000000E+000 0.100000000000000E+001 0.000000000000000E+000
 0.250000000000000E+000 0.100000000000000E+001 0.000000000000000E+000
 0.375000000000000E+000 0.100000000000000E+001 0.000000000000000E+000
 0.281250000000000E+000 0.830729166666667E+000 0.000000000000000E+000
 0.343750000000000E+000 0.312500000000000E+000 0.000000000000000E+000
 0.318389033445014E+000 0.364242983277493E+000 0.000000000000000E+000
 0.267787317245899E+000 0.358095790057897E+000 0.000000000000000E+000
 0.289796410792034E+000 0.300414294603983E+000 0.000000000000000E+000
 0.274503756719177E+000 0.737152390322435E-001 0.000000000000000E+000
 0.343750000000000E+000 0.183159722222222E+000 0.000000000000000E+000
 0.246744791666667E+000 0.146267361111111E+000 0.000000000000000E+000
 0.485980902777778E+000 0.146267361111111E+000 0.000000000000000E+000
 0.302262721771688E+000 0.146267361111111E+000 0.000000000000000E+000
 0.274503756719177E+000 0.197313658770435E+000 0.000000000000000E+000
 0.375000000000000E+000 0.000000000000000E+000 0.000000000000000E+000
 0.420862160086615E+000 0.187832617434252E+000 0.000000000000000E+000
 0.384683294119816E+000 0.146267361111111E+000 0.000000000000000E+000
 0.330565923051619E+000 0.413335216176427E+000 0.000000000000000E+000
 0.352621063931298E+000 0.818811625318066E+000 0.000000000000000E+000
 0.312179705605879E+000 0.796288985503351E+000 0.000000000000000E+000
 0.500000000000000E+000 0.828697389616904E+000 0.000000000000000E+000
 0.427559261986282E+000 0.805138192500353E+000 0.000000000000000E+000
 0.399035374849065E+000 0.860999763838749E+000 0.000000000000000E+000
 0.312500000000000E+000 0.000000000000000E+000 0.000000000000000E+000
 0.187500000000000E+000 0.820606518817204E+000 0.000000000000000E+000
 0.466707069430364E+000 0.898575881689250E+000 0.000000000000000E+000
 0.511172798160702E+000 0.257526753061783E+000 0.000000000000000E+000
 0.453250172578119E+000 0.849294180402265E+000 0.000000000000000E+000
 0.937500000000000E-001 0.504496261452806E-001 0.000000000000000E+000
 0.403162177800535E+000 0.933291523780214E+000 0.000000000000000E+000
 0.437500000000000E+000 0.100000000000000E+001 0.000000000000000E+000
 0.312500000000000E+000 0.934315683855312E+000 0.000000000000000E+000
 0.453353205989905E+000 0.949647808263675E+000 0.000000000000000E+000
 0.358054120979715E+000 0.953547171775243E+000 0.000000000000000E+000
 0.325154404090345E+000 0.873991089312954E+000 0.000000000000000E+000
 0.367644435624882E+000 0.899055397729593E+000 0.000000000000000E+000
 0.236990017361111E+000 0.801449092741935E+000 0.000000000000000E+000
 0.443167922913219E+000 0.252288460541578E+000 0.000000000000000E+000
 0.477263196714215E+000 0.204401840413902E+000 0.000000000000000E+000
 0.562394794036017E+000 0.187447086349591E+000 0.000000000000000E+000
 0.625000000000000E+000 0.375000000000000E+000 0.000000000000000E+000
 0.407024191230044E+000 0.312500000000000E+000 0.000000000000000E+000
 0.474084945258901E+000 0.294963270028168E+000 0.000000000000000E+000
 0.216342369774119E+000 0.930487241414522E-001 0.000000000000000E+000
 0.157072243143605E+000 0.162201579117130E+000 0.000000000000000E+000
 0.187500000000000E+000 0.000000000000000E+000 0.000000000000000E+000
 0.174352819470591E+000 0.117036261141583E+000 0.000000000000000E+000
 0.125000000000000E+000 0.000000000000000E+000 0.000000000000000E+000
 0.218750000000000E+000 0.413079239859885E-001 0.000000000000000E+000
 0.131982343008202E+000 0.962324019836500E-001 0.000000000000000E+000
 0.866442243142230E-001 0.109366815743071E+000 0.000000000000000E+000
 0.000000000000000E+000 0.125000000000000E+000 0.000000000000000E+000
 0.156250000000000E+000 0.557461246091935E-001 0.000000000000000E+000
 0.343473007945752E+000 0.889135573360382E-001 0.000000000000000E+000
 0.316206161479800E+000 0.485604570335434E-001 0.000000000000000E+000
 0.430629647389619E+000 0.697713778434944E-001 0.000000000000000E+000
 0.391175490408355E+000 0.981202752650288E-001 0.000000000000000E+000
 0.444501950008550E+000 0.736368377006958E+000 0.000000000000000E+000
 0.398829470438439E+000 0.687500000000000E+000 0.000000000000000E+000
 0.513688817046671E+000 0.757625009132424E+000 0.000000000000000E+000
 0.625000000000000E+000 0.500000000000000E+000 0.000000000000000E+000
 0.473588841595499E+000 0.786756047776317E+000 0.000000000000000E+000
 0.478860669310979E+000 0.411527234375853E+000 0.000000000000000E+000
 0.572911532233985E+000 0.805885984489640E+000 0.000000000000000E+000
 0.447298813474571E+000 0.682006891579307E+000 0.000000000000000E+000
 0.504019394669429E+000 0.534902916754864E+000 0.000000000000000E+000
 0.486274863958833E+000 0.352843653662708E+000 0.000000000000000E+000
 0.551332894747653E+000 0.390873360445252E+000 0.000000000000000E+000
 0.433027718644055E+000 0.375926460599989E+000 0.000000000000000E+000
 0.437992666628316E+000 0.468750000000000E+000 0.000000000000000E+000
 0.421394775819071E+000 0.423093236096220E+000 0.000000000000000E+000
 0.501785840486804E+000 0.471105361968983E+000 0.000000000000000E+000
 0.433650269193003E+000 0.539110962574808E+000 0.000000000000000E+000
 0.559767288621728E+000 0.501013305633588E+000 0.000000000000000E+000
 0.473047166828055E+000 0.607447789310414E+000 0.000000000000000E+000
 0.551301338206151E+000 0.446268697831009E+000 0.000000000000000E+000
 0.625000000000000E+000 0.625000000000000E+000 0.000000000000000E+000
[...]
CELL_DATA         2368
SCALARS tdens double 1
LOOKUP_TABLE default
 0.527913004524999E-002
 0.622586939355551E-002
 0.377538136806366E-002
 0.516352196356179E-002
 0.228144720132276E-002
 0.256054108142948E-002
 0.242482643011180E-002
 0.242121834573574E-002
 0.207871203108988E-001
 0.379429052688681E-001
 0.279511587504531E-001
 0.240141597693332E-001
 0.153054395319059E-001
 0.170200574478901E-001
 0.206655222221369E-001
 0.167526135870582E-001
 0.531171407281955E-001
 0.332111705335878E-001
 0.480904138446865E-001
 0.475710783393703E-001
 0.110176846747669E-002
 0.106195176358074E-002
 0.106883634056385E-002
 0.107806397738471E-002
 0.179738614724209E-002
 0.212603401695875E-002
 0.159672944224279E-002
 0.172847039250045E-002
 0.168302535518077E-001
 0.162403425706994E-001
 0.183170302218530E-001
 0.173221408396593E-001
 0.319689900810664E-001
 0.448012805829646E-001
 0.304577564379937E-001
 0.326125889474243E-001
 0.253795337202706E-002
 0.240086969456382E-002
 0.260619435416027E-002
 0.250518581465046E-002
 0.256011355738821E-002
 0.271794683827289E-002
 0.283646126966407E-002
 0.268843009053748E-002
 0.670180236180263E-002
 0.594120834242072E-002
 0.492031450693617E-002
 0.569839435965809E-002
 0.448184794987865E-001
 0.323079986597698E-001
 0.238158346316270E-001
 0.268816857170390E-001
 0.131335054587034E-001
 0.123832659813611E-001
 0.179333547444476E-001
 0.134787242056733E-001
 0.105104215614671E-002
 0.103273028634557E-002
 0.105137258771477E-002
 0.104108373970444E-002
 0.313969310182919E-002
 0.360033048171834E-002
 0.321857043464603E-002
 0.333689795525482E-002
 0.432212892291281E-002
 0.369647207975710E-002
 0.444416195957298E-002
 0.410236932261929E-002
 0.128955580745374E-002
 0.134991489495423E-002
 0.131023893117191E-002
 0.130738680047840E-002
 0.125755943267499E-002
 0.118108726253792E-002
 0.122225890556900E-002
 0.118768479117218E-002
 0.183839907435036E-001
 0.207328503313059E-001
 0.181174794046267E-001
 0.189594680045105E-001
 0.147242155543127E-001
 0.216973586864498E-001
 0.142595698605422E-001
 0.157793435069656E-001
 0.229527036136793E-002
 0.187124745191487E-002
 0.197099170470634E-002
 0.200304327799302E-002
 0.205934752820959E-001
 0.210198710584988E-001
 0.103448053604890E-001
 0.140229556125060E-001
 0.132761047168871E-002
 0.129887420048059E-002
 0.136712691218118E-002
 0.133035327797609E-002
 0.432706628007095E-001
 0.551453243985813E-001
 0.608794390071425E-001
 0.538243960555248E-001
 0.209994545049535E-001
 0.231735705868043E-001
 0.251388826624345E-001
 0.217653524549899E-001
 0.137745632846090E-002
 0.134698339818115E-002
 0.138836851226574E-002
 0.136873805087166E-002
 0.135859738792288E-002
 0.139158924585255E-002
 0.147846352918737E-002
 0.140976540696275E-002
 0.158602246908450E-002
 0.166175533298479E-002
 0.155973050044152E-002
 0.160638808825522E-002
 0.699391831551210E-002
 0.790876344865647E-002
 0.102580760716785E-001
 0.843072986436149E-002
 0.139909787350865E-001
 0.117062984893345E-001
 0.146367129446291E-001
 0.137689529584427E-001
 0.203113047717229E-002
 0.158505763081229E-002
 0.169454474035767E-002
 0.172662176368514E-002
 0.147116084568909E-002
 0.151844254655408E-002
 0.149433110179452E-002
 0.149522146913988E-002
 0.235742278914376E-001
 0.187919684470453E-001
 0.219446877450757E-001
 0.206832337084343E-001
 0.175386600010597E-002
 0.159101165521558E-002
 0.161470514746475E-002
 0.164664568710166E-002
 0.160324290331890E-002
 0.158806010726454E-002
 0.208590689012706E-002
 0.170516619670138E-002
 0.146377352685614E-002
 0.147348427476867E-002
 0.149040752431941E-002
 0.147449781887566E-002
 0.147627323511943E-002
 0.147179083124297E-002
 0.148647345421154E-002
 0.147876155137693E-002
 0.139250334766692E-002
 0.121667713110469E-002
 0.134501136691370E-002
 0.130790384210957E-002
 0.825952658424313E-002
 0.431979077025734E-002
 0.297125583356411E-002
 0.416084235949515E-002
 0.130257139512502E-001
 0.407624399618178E-002
 0.150510568552023E-001
 0.820827021740346E-002
 0.201433403292217E-001
 0.255241318113385E-001
 0.416363136045367E-001
 0.418889610297470E-001
 0.327746141354250E-002
 0.160171941551047E-002
 0.132479544714004E-002
 0.170444745282257E-002
 0.550652011645813E-001
 0.331746207286371E-001
 0.441241846156313E-001
 0.336239767723158E-001
 0.178896539142157E-001
 0.162185992199801E-001
 0.197864459334011E-001
 0.184532496831634E-001
 0.252282978314095E-002
 0.229806086581375E-002
 0.895283469479463E-002
 0.413121183161478E-002
 0.150604071653490E-002
 0.142761991740089E-002
 0.143809500626241E-002
 0.145149400983350E-002
 0.803464967084354E-002
 0.633692469858136E-002
 0.712970258084130E-002
 0.722129022003224E-002
 0.150454466787903E-002
 0.153172038034749E-002
 0.152231822560666E-002
 0.151709566473302E-002
 0.148823434340290E-002
 0.153361863876863E-002
 0.145136204229031E-002
 0.147541852291320E-002
 0.337733936484741E-002
 0.275018711141126E-002
 0.789637127546866E-002
 0.420094968400846E-002
 0.205188616575325E-002
 0.225546734194393E-002
 0.575872034893376E-002
 0.246673522055697E-002
 0.626507005269031E-002
 0.124103130361352E-001
 0.297179346939271E-002
 0.741115177358006E-002
 0.161252670725319E-001
 0.993757851849710E-002
 0.125597850276249E-001
 0.110717153111867E-001
 0.105990735377537E-001
 0.592973211404677E-002
 0.478663073806654E-002
 0.670820588067626E-002
 0.148972708136092E-001
 0.629812663812240E-002
 0.773610720180775E-002
 0.959057321090783E-002
 0.542545725756975E-001
 0.411494071474439E-001
 0.573897841181723E-001
 0.569053259163820E-001
 0.155582764832353E-002
 0.153278325587556E-002
 0.152869508047312E-002
 0.154196131063541E-002
 0.433865687240935E-001
 0.431220954591928E-001
 0.603440298428856E-001
 0.423832148142066E-001
 0.330758446527913E-002
 0.392595579928865E-002
 0.223226520502725E-002
 0.302182868559143E-002
 0.276748160081915E-002
 0.266184031389374E-002
 0.297370394657361E-002
 0.278331430426447E-002
 0.479575354907858E-002
 0.541201589295111E-002
 0.643708527155340E-002
 0.556790805730429E-002
 0.421409260580306E-001
 0.423722688031808E-001
 0.264950484118163E-001
 0.414184590150249E-001
 0.482220189674465E-002
 0.463780366707971E-002
 0.560961423967949E-002
 0.494547584131825E-002
 0.293403296071035E-001
 0.424024188102812E-001
 0.416531014235270E-001
 0.401206336023771E-001
 0.210443020321525E-001
 0.300981415210000E-001
 0.182669141775792E-001
 0.249920043063097E-001
 0.125380791750039E-001
 0.158841797713601E-001
 0.106076087446269E-001
 0.121787009093945E-001
 0.136041042894839E-001
 0.170478344277327E-001
 0.146319429189940E-001
 0.151983288997563E-001
 0.803017148384886E-002
 0.130961010494646E-001
 0.158655692661048E-001
 0.146592469829516E-001
 0.301674737933134E-002
 0.429956900558691E-002
 0.475915896129521E-002
 0.394158432308308E-002
 0.174259719094636E-002
 0.162103800385048E-002
 0.180419410654032E-002
 0.170118824207863E-002
 0.191837492403994E-001
 0.127614008195076E-001
 0.986441455575795E-002
 0.123458715633595E-001
 0.218355906458867E-001
 0.142871474470801E-001
 0.221514866554994E-001
 0.213385946719930E-001
 0.204986959140574E-001
 0.186816042004059E-001
 0.128383282779541E-001
 0.188460754915963E-001
 0.645974475513563E-002
 0.397975368950461E-002
 0.454560737583978E-002
 0.465867410611913E-002
 0.890887006682634E-002
 0.752194953015562E-002
 0.174256497720327E-001
 0.905321254929657E-002
 0.595685612427543E-001
 0.579065881457494E-001
 0.627789923467514E-001
 0.633431709813912E-001
 0.207858607327803E-001
 0.340153758833841E-001
 0.381077006417379E-001
 0.355156907652540E-001
 0.275536150391570E-001
 0.427705293275774E-001
 0.381312586116885E-001
 0.376848961184143E-001
 0.852782393266634E-002
 0.287825638208018E-002
 0.802525660148028E-002
 0.589808642580979E-002
 0.189948499051710E-002
 0.171386490773785E-002
 0.232493000231348E-002
 0.191718507382688E-002
 0.161217920565204E-002
 0.154974788514207E-002
 0.169891848506226E-002
 0.160892086771681E-002
 0.317809170773943E-001
 0.289087306160530E-001
 0.303954927081835E-001
 0.323335108418936E-001
 0.213539627746571E-001
 0.159006232667435E-001
 0.220313760984640E-001
 0.213454193134341E-001
 0.151158287856308E-001
 0.230299181179652E-001
 0.165466048909697E-001
 0.174065222021482E-001
 0.101601050173663E-001
 0.189040593713234E-001
 0.268871319525611E-001
 0.191476386151137E-001
 0.105818668235465E-001
 0.755077832882896E-002
 0.462674731510876E-002
 0.776459261732643E-002
 0.721892822657620E-002
 0.687156612038249E-002
 0.160247256080285E-001
 0.768945820534183E-002
 0.166731488513260E-001
 0.767638322532442E-002
 0.168586280754541E-001
 0.180559515220520E-001
 0.102375377557534E-001
 0.166605996130441E-001
 0.159060650003003E-001
 0.163388139209893E-001
 0.190556667503955E-002
 0.278584308911186E-002
 0.352518049384789E-002
 0.258855695148217E-002
 0.263313728636660E-001
 0.226327897304306E-001
 0.223225407022579E-001
 0.246075977534440E-001
 0.953682643890411E-002
 0.136988513816292E-001
 0.123597615436247E-001
 0.116137258590302E-001
 0.174371216283298E-001
 0.173964784091388E-001
 0.180561632558693E-001
 0.181088477527868E-001
 0.485773305688133E-002
 0.402070773888258E-001
 0.135082706942561E-001
 0.944741359663043E-002
 0.465986732050269E-002
 0.361364779571184E-002
 0.401864443899244E-002
 0.407317107871449E-002
 0.120454662021910E-001
 0.929099716875859E-002
 0.130830953074339E-001
 0.108508005548703E-001
 0.248703799885191E-001
 0.221792970958478E-001
 0.256789780779834E-001
 0.228295240335039E-001
 0.617659979879173E-001
 0.649770168844414E-001
 0.702374920640258E-001
 0.646565060166424E-001
 0.280568797693549E-001
 0.172753144379083E-001
 0.107507250473442E-001
 0.164271555286531E-001
 0.341533848753021E-002
 0.307365579881039E-002
 0.174175430620570E-002
 0.248652085615169E-002
 0.365215796222862E-001
 0.335995445564687E-001
 0.205099348089033E-001
 0.295387239359231E-001
 0.132364803319108E-002
 0.137314120658982E-002
 0.139946548488853E-002
 0.135655877364587E-002
 0.143423613164089E-002
 0.153619999172928E-002
 0.142233221515766E-002
 0.146286807581909E-002
 0.108741856168162E-001
 0.168125489846478E-001
 0.182495529469293E-001
 0.165786639828222E-001
 0.148117513277384E-002
 0.146809420221034E-002
 0.144886721305622E-002
 0.146587909832340E-002
 0.177921901128123E-001
 0.265581251498529E-001
 0.150080639692821E-001
 0.190487794354008E-001
 0.143562803015438E-001
 0.175604211756996E-001
 0.166016295689277E-001
 0.161985500844897E-001
 0.225039299252758E-001
 0.202390488424845E-001
 0.203952493411172E-001
 0.219026671340380E-001
 0.151383424992461E-002
 0.175012700769633E-002
 0.478557966685867E-002
 0.238027168945521E-002
 0.734428640352976E-002
 0.122702677823715E-001
 0.788143632561269E-002
 0.829665903187621E-002
 0.147441007969296E-001
 0.112499971550565E-001
 0.136445353639493E-001
 0.131467760228479E-001
 0.127820530780214E-001
 0.153153150076270E-001
 0.194786177851277E-001
 0.158342527207024E-001
 0.169000084380707E-001
 0.186217638156442E-001
 0.188351966383376E-001
 0.178827409213956E-001
 0.603196073656275E-002
 0.593356600804568E-002
 0.708495019478902E-002
 0.619421655946184E-002
 0.451960422413329E-002
 0.437761794127833E-002
 0.549445767912126E-002
 0.468542143942471E-002
 0.116484816657063E-001
 0.898660056022277E-002
 0.301902950838006E-002
 0.574837493016449E-002
 0.204532253280412E-001
 0.171033760959517E-001
 0.170664581446154E-001
 0.181374070581381E-001
 0.103553101945216E-001
 0.147638552885296E-001
 0.142611496150881E-001
 0.127739086155201E-001
 0.103204438160886E-001
 0.155148473238293E-001
 0.135126221220571E-001
 0.136266628867758E-001
 0.193764129022349E-001
 0.209532601472219E-001
 0.165626699610970E-001
 0.183649821432069E-001
 0.249082145176615E-001
 0.299423759369005E-001
 0.288340582473401E-001
 0.260398873907233E-001
 0.152806738533387E-001
 0.169121256598099E-001
 0.212387089328120E-001
 0.174095098567335E-001
 0.224681433003959E-001
 0.180698987479766E-001
 0.217334199711057E-001
 0.214764623346465E-001
 0.325335281852666E-002
 0.314776564335958E-002
 0.361201590784732E-002
 0.330673135409031E-002
 0.442801505210239E-002
 0.520192563512588E-002
 0.424996419241093E-002
 0.457283721411761E-002
 0.257786017423475E-001
 0.292273923535827E-001
 0.154349675531989E-001
 0.267583984270721E-001
 0.348414626614267E-002
 0.459337121056217E-002
 0.342411729409802E-002
 0.377985008969962E-002
 0.810482073966850E-002
 0.239912413853528E-002
 0.203194693309327E-002
 0.326520792710954E-002
 0.132015876486212E-002
 0.116573963723917E-002
 0.142125607861841E-002
 0.128099559630305E-002
 0.350509817849448E-002
 0.395227972232979E-002
 0.350794503424726E-002
 0.364107564603562E-002
 0.483874722448780E-002
 0.433353647383558E-002
 0.402562568439921E-002
 0.435281242599781E-002
 0.109036553338526E-001
 0.752202410627538E-002
 0.111167052930823E-001
 0.963915142329692E-002
 0.670214082546921E-002
 0.386553335142313E-002
 0.346589713958757E-002
 0.413422663568748E-002
 0.878754914209989E-002
 0.687994067622364E-002
 0.103799785045161E-001
 0.819527812029543E-002
 0.941997463252511E-002
 0.641614646068281E-002
 0.658423246789784E-002
 0.717883462330030E-002
 0.161912467578482E-002
 0.164314757630353E-002
 0.186908344360835E-002
 0.168572656829867E-002
 0.126678917232085E-001
 0.914478238361491E-002
 0.112281506208838E-001
 0.113365145107037E-001
 0.546932204204735E-002
 0.531455854826794E-002
 0.440593115479037E-002
 0.503622416621407E-002
 0.304608225254586E-002
 0.372504896457739E-002
 0.356913002625072E-002
 0.342177427695013E-002
 0.241328530720770E-001
 0.178547355429268E-001
 0.203977415368957E-001
 0.211889772444515E-001
 0.326185790217630E-002
 0.391380054526376E-002
 0.378441278734009E-002
 0.363625012864493E-002
 0.201160416969695E-001
 0.143636099864369E-001
 0.194057458897060E-001
 0.188881895221762E-001
 0.367681672950323E-002
 0.335351119729217E-002
 0.327312815234682E-002
 0.344607346857800E-002
 0.259297274050539E-001
 0.211243787053214E-001
 0.234602367690434E-001
 0.244333195246381E-001
 0.655287498132580E-002
 0.802275128529354E-002
 0.605759175615119E-002
 0.673881388676835E-002
 0.177535238171391E-001
 0.141361220790755E-001
 0.177332600941145E-001
 0.172270549078058E-001
 0.184608075397826E-001
 0.196334882188483E-001
 0.193539099479206E-001
 0.192064003131949E-001
 0.182023416877512E-001
 0.250022119935940E-001
 0.238120056824601E-001
 0.231039927117068E-001
 0.678138059791358E-002
 0.943186355802300E-002
 0.555055654816839E-002
 0.667188992781722E-002
 0.250192741280751E-001
 0.254229860719857E-001
 0.301418552742532E-001
 0.262305865257968E-001
 0.814053609899503E-002
 0.757023628497279E-002
 0.627164706467269E-002
 0.736747504022063E-002
 0.133929780536400E-001
 0.158526029766621E-001
 0.176290190983966E-001
 0.159418103708392E-001
 0.145473531765188E-002
 0.156633068703429E-002
 0.185265623677169E-002
 0.165234731509686E-002
 0.427870613731642E-002
 0.443285858141301E-002
 0.493484774787088E-002
 0.461556482495202E-002
 0.125277398553442E-002
 0.116685038421276E-002
 0.124094614651063E-002
 0.122032629238945E-002
 0.145060675151935E-001
 0.120338459572300E-001
 0.110472915158123E-001
 0.121587726074487E-001
 0.251429593592900E-002
 0.178223693506602E-002
 0.204131533737383E-002
 0.209308984967971E-002
 0.164104680170056E-001
 0.133667576898967E-001
 0.205264558953096E-001
 0.154212125450462E-001
 0.438615971207465E-002
 0.462099151942172E-002
 0.518351759545189E-002
 0.469289838703491E-002
 0.119110489223541E-002
 0.123159071735413E-002
 0.136296926556772E-002
 0.126566721785516E-002
 0.928980797962289E-002
 0.100713958610205E-001
 0.134767510896817E-001
 0.110603934455863E-001
 0.958775712133681E-002
 0.106336953937951E-001
 0.867085606923540E-002
 0.940834364490740E-002
 0.229757244241872E-001
 0.260876149632901E-001
 0.182170260341905E-001
 0.245326270293596E-001
 0.558103887573324E-002
 0.518590205987834E-002
 0.538732128462728E-002
 0.529504879707100E-002
 0.262876665099576E-002
 0.281194375211333E-002
 0.304614738371364E-002
 0.282491054635783E-002
 0.668250602907204E-002
 0.299900074713512E-002
 0.340244523130861E-002
 0.377413107808293E-002
 0.448655734401518E-002
 0.504259222930218E-002
 0.493089535866020E-002
 0.477058233861328E-002
 0.866080380170633E-002
 0.112072791140638E-001
 0.124706504316929E-001
 0.106842678000191E-001
 0.213449378356765E-002
 0.247684000406340E-002
 0.218549756275750E-002
 0.227911460653641E-002
 0.560712092268724E-002
 0.526810193143247E-002
 0.558641718809786E-002
 0.550052146104700E-002
 0.358012743490429E-002
 0.409994533626669E-002
 0.406465390400463E-002
 0.385264182280269E-002
 0.462507061845021E-002
 0.610254587768609E-002
 0.585330072579777E-002
 0.558754682783327E-002
 0.972877200844969E-002
 0.844959421680386E-002
 0.119499958557147E-001
 0.997249258374533E-002
 0.480397216912153E-002
 0.596536317669511E-002
 0.439088224228068E-002
 0.494026925859985E-002
 0.476869546503317E-002
 0.570943124422531E-002
 0.542972013154176E-002
 0.525230626038520E-002
 0.742147021563803E-002
 0.856443511282667E-002
 0.687440846033185E-002
 0.747662738740550E-002
 0.832606418351326E-002
 0.152041462760732E-001
 0.115338670537978E-001
 0.124222090433752E-001
 0.133427146344461E-001
 0.187729335051811E-001
 0.107139103396637E-001
 0.172802857229003E-001
 0.363962448185001E-002
 0.386408176968981E-002
 0.323034399896728E-002
 0.357861205139960E-002
 0.514097049111346E-002
 0.448062761227380E-002
 0.532287449815098E-002
 0.497990936779958E-002
 0.290842376230957E-002
 0.339137784225997E-002
 0.303884758236205E-002
 0.309041835887300E-002
 0.419380044557941E-002
 0.477066264161375E-002
 0.398658069865609E-002
 0.429498803338359E-002
 0.196230125340500E-002
 0.210231571672069E-002
 0.208857772106449E-002
 0.202867667265245E-002
 0.252880434239526E-002
 0.251013463233949E-002
 0.276124664385567E-002
 0.260557727595287E-002
 0.792540925417797E-001
 0.784581974857695E-001
 0.554937781596803E-001
 0.798468495783354E-001
 0.385410102353455E-001
 0.741413623165398E-001
 0.808185231266760E-001
 0.737188782067132E-001
 0.768537503630304E-002
 0.620908131343599E-002
 0.828176071792590E-002
 0.727586188725916E-002
 0.783430742053098E-002
 0.593716700420000E-002
 0.612969344082414E-002
 0.646444935748062E-002
 0.650729624766794E-002
 0.619805172576839E-002
 0.756309028778786E-002
 0.659714895483156E-002
 0.210865119817243E-001
 0.183244184996549E-001
 0.180510760702279E-001
 0.180635192661484E-001
 0.837451914821675E-002
 0.447002814748978E-002
 0.468715758086378E-002
 0.500236967024535E-002
 0.201636774412156E-002
 0.195085476159798E-002
 0.174865754651599E-002
 0.189431819578620E-002
 0.186442342438239E-001
 0.156616747220164E-001
 0.125247334790658E-001
 0.217859216970677E-001
 0.146743136100301E-002
 0.149442542630248E-002
 0.124292229994352E-002
 0.135231040546470E-002
 0.188425555731777E-002
 0.284866936001797E-002
 0.297902066739965E-002
 0.243630497963109E-002
 0.230108116535380E-002
 0.285318553768983E-002
 0.288542171518319E-002
 0.263842054220378E-002
 0.931167656238116E-002
 0.471784284592654E-002
 0.916728307713134E-002
 0.953326168137136E-002
 0.109952813867142E-002
 0.106876665576465E-002
 0.113390847204508E-002
 0.109714445529179E-002
 0.140268390258156E-002
 0.123296733263793E-002
 0.118739663605634E-002
 0.127777952932131E-002
 0.230190109579741E-002
 0.265622049790252E-002
 0.270832676091686E-002
 0.252292653248040E-002
 0.130858003934277E-002
 0.150678879437915E-002
 0.146172366787952E-002
 0.140638017976527E-002
 0.176799768279878E-002
 0.166593571762101E-002
 0.258901039280380E-002
 0.194864944735189E-002
 0.229342130573878E-002
 0.247943749402730E-002
 0.258457046569121E-002
 0.244374672325331E-002
 0.104599029140512E-002
 0.105846788028274E-002
 0.107096985403694E-002
 0.105524101729100E-002
 0.291677208250245E-002
 0.267080774688725E-002
 0.275596709540307E-002
 0.278991255050587E-002
 0.159677126739444E-002
 0.340511217117114E-002
 0.235365546209272E-002
 0.222791330112201E-002
 0.194211741062229E-002
 0.312218329052361E-002