# vtk DataFile Version 3.0
Unstructured Grid
ASCII
DATASET UNSTRUCTURED_GRID
FIELD FieldData 1
TIME 1 1 float
  0.000000E+00
POINTS          268 double
 0.210551697530864E+000 0.365837191358025E+000 0.000000000000000E+000
 0.205343364197531E+000 0.329378858024691E+000 0.000000000000000E+000
 0.223186728395062E+000 0.346257716049383E+000 0.000000000000000E+000
 0.734375000000000E+000 0.265625000000000E+000 0.000000000000000E+000
 0.718750000000000E+000 0.312500000000000E+000 0.000000000000000E+000
 0.718750000000000E+000 0.281250000000000E+000 0.000000000000000E+000
 0.637152777777778E+000 0.406250000000000E+000 0.000000000000000E+000
 0.673611111111111E+000 0.437500000000000E+000 0.000000000000000E+000
 0.637152777777778E+000 0.468750000000000E+000 0.000000000000000E+000
 0.649305555555555E+000 0.437500000000000E+000 0.000000000000000E+000
 0.637535743464052E+000 0.523160913671024E+000 0.000000000000000E+000
 0.675142973856209E+000 0.530143654684096E+000 0.000000000000000E+000
 0.637535743464052E+000 0.585660913671024E+000 0.000000000000000E+000
 0.650071486928105E+000 0.546321827342048E+000 0.000000000000000E+000
 0.156250000000000E+000 0.739583333333333E+000 0.000000000000000E+000
 0.187500000000000E+000 0.708333333333333E+000 0.000000000000000E+000
 0.187500000000000E+000 0.729166666666667E+000 0.000000000000000E+000
 0.154711174242424E+000 0.530184659090909E+000 0.000000000000000E+000
 0.209398674242424E+000 0.561434659090909E+000 0.000000000000000E+000
 0.189157196969697E+000 0.589488636363636E+000 0.000000000000000E+000
 0.135416666666667E+000 0.281250000000000E+000 0.000000000000000E+000
 0.166666666666667E+000 0.312500000000000E+000 0.000000000000000E+000
 0.145833333333333E+000 0.312500000000000E+000 0.000000000000000E+000
 0.252749010673831E+000 0.644885985453577E+000 0.000000000000000E+000
 0.204611258350276E+000 0.668234990681576E+000 0.000000000000000E+000
 0.221722516700552E+000 0.648969981363152E+000 0.000000000000000E+000
 0.599771376236581E+000 0.356670405234375E+000 0.000000000000000E+000
 0.210503472222222E+000 0.540798611111111E+000 0.000000000000000E+000
 0.155815972222222E+000 0.509548611111111E+000 0.000000000000000E+000
 0.193576388888889E+000 0.506944444444444E+000 0.000000000000000E+000
 0.306800805543935E+000 0.552898150309297E+000 0.000000000000000E+000
 0.258346915741766E+000 0.552898150309297E+000 0.000000000000000E+000
 0.281808773164894E+000 0.524092601237188E+000 0.000000000000000E+000
 0.282318831483532E+000 0.543296300618594E+000 0.000000000000000E+000
 0.233072916666667E+000 0.438368055555556E+000 0.000000000000000E+000
 0.207031250000000E+000 0.412326388888889E+000 0.000000000000000E+000
 0.216145833333333E+000 0.439236111111111E+000 0.000000000000000E+000
 0.173611111111111E+000 0.402777777777778E+000 0.000000000000000E+000
 0.149305555555556E+000 0.420138888888889E+000 0.000000000000000E+000
 0.349440586419753E+000 0.353202160493827E+000 0.000000000000000E+000
 0.304012345679012E+000 0.336130401234568E+000 0.000000000000000E+000
 0.318190586419753E+000 0.304880401234568E+000 0.000000000000000E+000
 0.323881172839506E+000 0.331404320987654E+000 0.000000000000000E+000
 0.156250000000000E+000 0.260416666666667E+000 0.000000000000000E+000
 0.187500000000000E+000 0.291666666666667E+000 0.000000000000000E+000
 0.187500000000000E+000 0.270833333333333E+000 0.000000000000000E+000
 0.367187500000000E+000 0.468750000000000E+000 0.000000000000000E+000
 0.343750000000000E+000 0.437500000000000E+000 0.000000000000000E+000
 0.359375000000000E+000 0.437500000000000E+000 0.000000000000000E+000
 0.147569444444444E+000 0.366319444444444E+000 0.000000000000000E+000
 0.178819444444444E+000 0.335069444444444E+000 0.000000000000000E+000
 0.184027777777778E+000 0.371527777777778E+000 0.000000000000000E+000
 0.245273919753086E+000 0.275559413580247E+000 0.000000000000000E+000
 0.262345679012346E+000 0.320987654320988E+000 0.000000000000000E+000
 0.214023919753086E+000 0.306809413580247E+000 0.000000000000000E+000
 0.240547839506173E+000 0.301118827160494E+000 0.000000000000000E+000
 0.220968364197531E+000 0.386670524691358E+000 0.000000000000000E+000
 0.264081790123457E+000 0.364390432098765E+000 0.000000000000000E+000
 0.244020061728395E+000 0.387924382716049E+000 0.000000000000000E+000
 0.213962584107852E+000 0.690133664924000E+000 0.000000000000000E+000
 0.262100336431407E+000 0.666784659696001E+000 0.000000000000000E+000
 0.245212584107852E+000 0.721383664924000E+000 0.000000000000000E+000
 0.335692878349105E+000 0.669300331590667E+000 0.000000000000000E+000
 0.308157909991720E+000 0.645951326362668E+000 0.000000000000000E+000
 0.353770157668165E+000 0.638050331590667E+000 0.000000000000000E+000
 0.146898674242424E+000 0.634351325757576E+000 0.000000000000000E+000
 0.181344696969697E+000 0.631155303030303E+000 0.000000000000000E+000
 0.178148674242424E+000 0.665601325757576E+000 0.000000000000000E+000
 0.135416666666667E+000 0.718750000000000E+000 0.000000000000000E+000
 0.166666666666667E+000 0.687500000000000E+000 0.000000000000000E+000
 0.145833333333333E+000 0.687500000000000E+000 0.000000000000000E+000
 0.170928030303030E+000 0.599905303030303E+000 0.000000000000000E+000
 0.147964015151515E+000 0.581202651515151E+000 0.000000000000000E+000
 0.305246273164894E+000 0.513675934570522E+000 0.000000000000000E+000
 0.352096915741766E+000 0.511231483642630E+000 0.000000000000000E+000
 0.330238305543935E+000 0.542481483642630E+000 0.000000000000000E+000
 0.329193831483532E+000 0.522462967285261E+000 0.000000000000000E+000
 0.260561510673831E+000 0.624052652120244E+000 0.000000000000000E+000
 0.215619781077549E+000 0.612955634620970E+000 0.000000000000000E+000
 0.235861258350276E+000 0.584901657348243E+000 0.000000000000000E+000
 0.237347516700552E+000 0.607303314696485E+000 0.000000000000000E+000
 0.283459966365463E+000 0.614701326362668E+000 0.000000000000000E+000
 0.283144428083816E+000 0.588600663181334E+000 0.000000000000000E+000
 0.270436824334832E+000 0.721383664924000E+000 0.000000000000000E+000
 0.287324576658387E+000 0.666784659696001E+000 0.000000000000000E+000
 0.290873648669663E+000 0.692767329848001E+000 0.000000000000000E+000
 0.219626174696598E+000 0.507759261420408E+000 0.000000000000000E+000
 0.260015115453060E+000 0.512807879014966E+000 0.000000000000000E+000
 0.236553258029932E+000 0.541613428087075E+000 0.000000000000000E+000
 0.238731516059863E+000 0.520726856174150E+000 0.000000000000000E+000
 0.268237285807709E+000 0.448731483642630E+000 0.000000000000000E+000
 0.307299785807709E+000 0.448731483642630E+000 0.000000000000000E+000
 0.286474571615419E+000 0.459962967285261E+000 0.000000000000000E+000
 0.367713796600723E+000 0.531250000000000E+000 0.000000000000000E+000
 0.367713796600723E+000 0.593750000000000E+000 0.000000000000000E+000
 0.345855186402893E+000 0.562500000000000E+000 0.000000000000000E+000
 0.360427593201446E+000 0.562500000000000E+000 0.000000000000000E+000
 0.306897466365463E+000 0.625117993029335E+000 0.000000000000000E+000
 0.330651103844078E+000 0.585966998257334E+000 0.000000000000000E+000
 0.352509714041908E+000 0.617216998257334E+000 0.000000000000000E+000
 0.330019428083816E+000 0.609433996514667E+000 0.000000000000000E+000
 0.368974240226980E+000 0.656250000000000E+000 0.000000000000000E+000
 0.368974240226980E+000 0.718750000000000E+000 0.000000000000000E+000
 0.350896960907920E+000 0.687500000000000E+000 0.000000000000000E+000
 0.362948480453960E+000 0.687500000000000E+000 0.000000000000000E+000
 0.330063627574587E+000 0.708333333333333E+000 0.000000000000000E+000
 0.348140906893647E+000 0.739583333333333E+000 0.000000000000000E+000
 0.321281813787293E+000 0.729166666666667E+000 0.000000000000000E+000
 0.304719976564171E+000 0.492842601237188E+000 0.000000000000000E+000
 0.328133119141043E+000 0.459148150309297E+000 0.000000000000000E+000
 0.328141238282086E+000 0.480796300618594E+000 0.000000000000000E+000
 0.285783179012346E+000 0.373070987654321E+000 0.000000000000000E+000
 0.307773919753086E+000 0.421392746913580E+000 0.000000000000000E+000
 0.268711419753086E+000 0.421392746913580E+000 0.000000000000000E+000
 0.287422839506173E+000 0.405285493827160E+000 0.000000000000000E+000
 0.283179012345679E+000 0.315297067901235E+000 0.000000000000000E+000
 0.266107253086420E+000 0.269868827160494E+000 0.000000000000000E+000
 0.282214506172839E+000 0.289737654320988E+000 0.000000000000000E+000
 0.306616512345679E+000 0.362654320987654E+000 0.000000000000000E+000
 0.352044753086420E+000 0.379726080246914E+000 0.000000000000000E+000
 0.328607253086420E+000 0.410976080246914E+000 0.000000000000000E+000
 0.329089506172839E+000 0.384452160493827E+000 0.000000000000000E+000
 0.343750000000000E+000 0.254726080246914E+000 0.000000000000000E+000
 0.312500000000000E+000 0.268904320987654E+000 0.000000000000000E+000
 0.312500000000000E+000 0.259452160493827E+000 0.000000000000000E+000
 0.364583333333333E+000 0.338059413580247E+000 0.000000000000000E+000
 0.333333333333333E+000 0.289737654320988E+000 0.000000000000000E+000
 0.364583333333333E+000 0.275559413580247E+000 0.000000000000000E+000
 0.354166666666667E+000 0.301118827160494E+000 0.000000000000000E+000
 0.401763554741336E+000 0.369547401570504E+000 0.000000000000000E+000
 0.464263554741336E+000 0.384439606282016E+000 0.000000000000000E+000
 0.428527109482671E+000 0.364094803141008E+000 0.000000000000000E+000
 0.380930221408002E+000 0.343750000000000E+000 0.000000000000000E+000
 0.635416666666667E+000 0.270833333333333E+000 0.000000000000000E+000
 0.666666666666667E+000 0.270833333333333E+000 0.000000000000000E+000
 0.635416666666667E+000 0.333333333333333E+000 0.000000000000000E+000
 0.645833333333333E+000 0.291666666666667E+000 0.000000000000000E+000
 0.616473960088800E+000 0.406250000000000E+000 0.000000000000000E+000
 0.619232338062741E+000 0.343750000000000E+000 0.000000000000000E+000
 0.584705704840506E+000 0.372051140138212E+000 0.000000000000000E+000
[...]
POINT_DATA          268
SCALARS opt_pot double 1
LOOKUP_TABLE default
 0.904120888607613E+000
 0.926596975784924E+000
 0.841902590434866E+000
-0.407447632925853E+000
-0.214653211563957E+000
-0.298455427825609E+000
-0.896923745604358E-001
-0.277678292592047E+000
-0.392878194305789E+000
-0.245613006587541E+000
-0.349175307468342E+000
-0.364213109497136E+000
-0.334658480922501E-001
-0.217650412220857E+000
 0.121903198710904E+001
 0.999245971156810E+000
 0.110699725554497E+001
 0.118364364100785E+001
 0.953510406319336E+000
 0.981106360661254E+000
 0.131295314255563E+001
 0.109316712660340E+001
 0.122128252295027E+001
 0.663204630570843E+000
 0.830820446260380E+000
 0.761246414880249E+000
 0.148086162192741E+000
 0.901201636733632E+000
 0.110536420422679E+001
 0.917128426987880E+000
 0.554605470191597E+000
 0.706407304924473E+000
 0.712275629909012E+000
 0.619996892202840E+000
 0.934028948333106E+000
 0.961742846132664E+000
 0.101832116683034E+001
 0.106388096128604E+001
 0.121242608823257E+001
 0.732432007132331E+000
 0.739412674667425E+000
 0.739315243703794E+000
 0.637844342291964E+000
 0.128228607241147E+001
 0.114532629061897E+001
 0.111846724835367E+001
 0.875699587570631E+000
 0.828771937358397E+000
 0.828129177437253E+000
 0.119435419243154E+001
 0.102251268275467E+001
 0.101119917913811E+001
 0.101980370648798E+001
 0.854094720135473E+000
 0.101226429873678E+001
 0.877354106508592E+000
 0.866434825667905E+000
 0.719470097348583E+000
 0.786830064903560E+000
 0.872473329556736E+000
 0.704857513868031E+000
 0.100234905835233E+001
 0.653877037921545E+000
 0.557840244977324E+000
 0.529389684234090E+000
 0.110749204523288E+001
 0.935449645020378E+000
 0.993195549544652E+000
 0.119734553312877E+001
 0.977559517175385E+000
 0.108116763870316E+001
 0.988984975199150E+000
 0.113627329181271E+001
 0.665148495516924E+000
 0.689483788545958E+000
 0.533646973433514E+000
 0.692008174054651E+000
 0.660182203413719E+000
 0.805209454505901E+000
 0.995162181314060E+000
 0.858883109847365E+000
 0.626624570676226E+000
 0.759295537448384E+000
 0.943657559574850E+000
 0.659434319714028E+000
 0.806026030306178E+000
 0.845475864307156E+000
 0.809148282370904E+000
 0.847751600017984E+000
 0.754332383718917E+000
 0.914194059062567E+000
 0.867714553595529E+000
 0.963173319831292E+000
 0.617702081576841E+000
 0.440900447422694E+000
 0.469543644384909E+000
 0.439474321750436E+000
 0.525385920035280E+000
 0.571488140642092E+000
 0.435852198102731E+000
 0.554208691325721E+000
 0.541392775175275E+000
 0.809409566642959E+000
 0.720934607539958E+000
 0.651134545518912E+000
 0.809543022036183E+000
 0.920419703214091E+000
 0.921979797806075E+000
 0.768789672117827E+000
 0.891692534890844E+000
 0.882105828125268E+000
 0.665516770640091E+000
 0.744052288379291E+000
 0.778212886075433E+000
 0.706408072004446E+000
 0.746691025634880E+000
 0.102058980661862E+001
 0.893387519801772E+000
 0.779854457498993E+000
 0.538505087544135E+000
 0.652112081980089E+000
 0.578912514653729E+000
 0.889783803863715E+000
 0.915245953638238E+000
 0.946367556853879E+000
 0.542641862752319E+000
 0.771380053237880E+000
 0.855658539041600E+000
 0.653319535582485E+000
 0.459818636299201E+000
 0.315927193020000E+000
 0.412089206235639E+000
 0.506925615819373E+000
-0.272129966085806E+000
-0.277998363179174E+000
 0.488119283983504E-001
-0.132675423041368E+000
-0.681664252890636E-001
 0.962786270594783E-001
 0.169068356705208E+000
 0.186040892192370E+000
 0.245107934300973E+000
 0.327999091804667E+000
-0.311981120868989E+000
-0.414842862634292E+000
-0.250839042421174E+000
-0.461343094289229E+000
-0.665624136483148E+000
-0.577658199317366E+000
-0.244009485090662E+000
 0.400352352837212E-001
-0.203678744344798E+000
-0.152854487335540E-001
-0.409294345226688E+000
-0.276704374207893E+000
-0.161864481115976E+000
-0.298104737475331E+000
-0.515034172959117E+000
-0.505411383326911E+000
 0.393259144114871E-001
-0.278164686902941E+000
-0.671259713784917E-001
-0.677696397823096E-001
-0.341906737491784E+000
-0.194972641429376E+000
-0.125601749016024E+000
-0.531964912940829E+000
-0.498126219305134E+000
-0.533640351806461E+000
 0.903031851917900E+000
 0.103691627963031E+001
 0.991154226476339E+000
-0.567462202933322E+000
-0.556280539694955E+000
-0.741132118590951E+000
-0.592676385728004E+000
-0.594728396410081E+000
-0.525569956210541E+000
-0.425437710702458E+000
-0.266403654124017E+000
-0.432421803985351E+000
-0.625799205333125E+000
-0.380566743857439E+000
-0.559089803227326E+000
-0.515632480211801E+000
-0.341664049920441E+000
-0.562584314070058E+000
-0.431340000138060E+000
-0.698733896127111E+000
-0.483191364061861E+000
-0.362876637243797E+000
-0.546855070741601E+000
-0.353389572205830E+000
-0.220083424880067E+000
-0.262164884966567E+000
-0.179322049361337E+000
-0.418915898118271E+000
-0.313374680994395E+000
-0.418649749878220E+000
-0.667182866029450E+000
-0.492531398791296E+000
-0.581856979064976E+000
-0.537534377892804E+000
-0.581300371097527E+000
-0.632101082623534E+000
-0.523424700976777E+000
-0.779006862588723E+000
-0.519300857133477E+000
-0.485665012067601E+000
-0.340625406656590E+000
-0.422298623261956E+000
-0.209255885608082E+000
-0.171371705069264E+000
-0.313079137006765E-001
-0.782313891548745E-001
-0.209086017660486E+000
-0.347868224605733E+000
-0.348045623580169E+000
-0.241791092664301E+000
-0.119479026660639E+000
-0.394657330761811E-001
-0.975255799800709E-001
 0.107758024750975E+001
 0.106519415463640E+001
 0.117293602169581E+001
-0.779018091222974E+000
-0.592928690730946E+000
-0.695687527161457E+000
 0.283437997182863E+000
-0.390473088766768E+000
-0.545665900277653E+000
-0.453449873760565E+000
 0.213985401960815E-001
 0.613020123794922E-001
 0.119964110028702E+000
 0.588040326963885E-001
 0.122150049184558E+000
 0.284676648401372E-002
 0.510927386145003E+000
 0.318238859845134E+000
 0.373636604237049E+000
 0.364383119392124E+000
 0.178563473632778E+000
 0.246924031484050E+000
 0.194658283121567E+000
-0.118968216433257E+000
-0.360355586843403E+000
-0.427244725728675E+000
-0.291478209300900E+000
-0.351926120338553E+000
-0.262881662084482E+000
-0.300099018648504E+000
-0.224344195743057E+000
-0.339239500303269E+000
-0.437674220250246E+000
-0.473324304803462E+000
-0.404400589469523E+000
-0.720151191620738E+000
-0.517033435145854E+000
-0.557675205204177E+000
-0.697685216406359E+000
-0.603098058765819E+000
-0.523033749167736E+000
-0.609900738052182E+000
-0.694440343652559E+000
-0.341636156933536E+000
-0.475720961437606E+000
-0.468410136675975E+000
