# vtk DataFile Version 3.0
Unstructured Grid
ASCII
DATASET UNSTRUCTURED_GRID
FIELD FieldData 1
TIME 1 1 float
  0.000000E+00
POINTS          268 double
 0.210551697530864E+000 0.365837191358025E+000 0.000000000000000E+000
 0.205343364197531E+000 0.329378858024691E+000 0.000000000000000E+000
 0.223186728395062E+000 0.346257716049383E+000 0.000000000000000E+000
 0.734375000000000E+000 0.265625000000000E+000 0.000000000000000E+000
 0.718750000000000E+000 0.312500000000000E+000 0.000000000000000E+000
 0.718750000000000E+000 0.281250000000000E+000 0.000000000000000E+000
 0.637152777777778E+000 0.406250000000000E+000 0.000000000000000E+000
 0.673611111111111E+000 0.437500000000000E+000 0.000000000000000E+000
 0.637152777777778E+000 0.468750000000000E+000 0.000000000000000E+000
 0.649305555555555E+000 0.437500000000000E+000 0.000000000000000E+000
 0.637535743464052E+000 0.523160913671024E+000 0.000000000000000E+000
 0.675142973856209E+000 0.530143654684096E+000 0.000000000000000E+000
 0.637535743464052E+000 0.585660913671024E+000 0.000000000000000E+000
 0.650071486928105E+000 0.546321827342048E+000 0.000000000000000E+000
 0.156250000000000E+000 0.739583333333333E+000 0.000000000000000E+000
 0.187500000000000E+000 0.708333333333333E+000 0.000000000000000E+000
 0.187500000000000E+000 0.729166666666667E+000 0.000000000000000E+000
 0.154711174242424E+000 0.530184659090909E+000 0.000000000000000E+000
 0.209398674242424E+000 0.561434659090909E+000 0.000000000000000E+000
 0.189157196969697E+000 0.589488636363636E+000 0.000000000000000E+000
 0.135416666666667E+000 0.281250000000000E+000 0.000000000000000E+000
 0.166666666666667E+000 0.312500000000000E+000 0.000000000000000E+000
 0.145833333333333E+000 0.312500000000000E+000 0.000000000000000E+000
 0.252749010673831E+000 0.644885985453577E+000 0.000000000000000E+000
 0.204611258350276E+000 0.668234990681576E+000 0.000000000000000E+000
 0.221722516700552E+000 0.648969981363152E+000 0.000000000000000E+000
 0.599771376236581E+000 0.356670405234375E+000 0.000000000000000E+000
 0.210503472222222E+000 0.540798611111111E+000 0.000000000000000E+000
 0.155815972222222E+000 0.509548611111111E+000 0.000000000000000E+000
 0.193576388888889E+000 0.506944444444444E+000 0.000000000000000E+000
 0.306800805543935E+000 0.552898150309297E+000 0.000000000000000E+000
 0.258346915741766E+000 0.552898150309297E+000 0.000000000000000E+000
 0.281808773164894E+000 0.524092601237188E+000 0.000000000000000E+000
 0.282318831483532E+000 0.543296300618594E+000 0.000000000000000E+000
 0.233072916666667E+000 0.438368055555556E+000 0.000000000000000E+000
 0.207031250000000E+000 0.412326388888889E+000 0.000000000000000E+000
 0.216145833333333E+000 0.439236111111111E+000 0.000000000000000E+000
 0.173611111111111E+000 0.402777777777778E+000 0.000000000000000E+000
 0.149305555555556E+000 0.420138888888889E+000 0.000000000000000E+000
 0.349440586419753E+000 0.353202160493827E+000 0.000000000000000E+000
 0.304012345679012E+000 0.336130401234568E+000 0.000000000000000E+000
 0.318190586419753E+000 0.304880401234568E+000 0.000000000000000E+000
 0.323881172839506E+000 0.331404320987654E+000 0.000000000000000E+000
 0.156250000000000E+000 0.260416666666667E+000 0.000000000000000E+000
 0.187500000000000E+000 0.291666666666667E+000 0.000000000000000E+000
 0.187500000000000E+000 0.270833333333333E+000 0.000000000000000E+000
 0.367187500000000E+000 0.468750000000000E+000 0.000000000000000E+000
 0.343750000000000E+000 0.437500000000000E+000 0.000000000000000E+000
 0.359375000000000E+000 0.437500000000000E+000 0.000000000000000E+000
 0.147569444444444E+000 0.366319444444444E+000 0.000000000000000E+000
 0.178819444444444E+000 0.335069444444444E+000 0.000000000000000E+000
 0.184027777777778E+000 0.371527777777778E+000 0.000000000000000E+000
 0.245273919753086E+000 0.275559413580247E+000 0.000000000000000E+000
 0.262345679012346E+000 0.320987654320988E+000 0.000000000000000E+000
 0.214023919753086E+000 0.306809413580247E+000 0.000000000000000E+000
 0.240547839506173E+000 0.301118827160494E+000 0.000000000000000E+000
 0.220968364197531E+000 0.386670524691358E+000 0.000000000000000E+000
 0.264081790123457E+000 0.364390432098765E+000 0.000000000000000E+000
 0.244020061728395E+000 0.387924382716049E+000 0.000000000000000E+000
 0.213962584107852E+000 0.690133664924000E+000 0.000000000000000E+000
 0.262100336431407E+000 0.666784659696001E+000 0.000000000000000E+000
 0.245212584107852E+000 0.721383664924000E+000 0.000000000000000E+000
 0.335692878349105E+000 0.669300331590667E+000 0.000000000000000E+000
 0.308157909991720E+000 0.645951326362668E+000 0.000000000000000E+000
 0.353770157668165E+000 0.638050331590667E+000 0.000000000000000E+000
 0.146898674242424E+000 0.634351325757576E+000 0.000000000000000E+000
 0.181344696969697E+000 0.631155303030303E+000 0.000000000000000E+000
 0.178148674242424E+000 0.665601325757576E+000 0.000000000000000E+000
 0.135416666666667E+000 0.718750000000000E+000 0.000000000000000E+000
 0.166666666666667E+000 0.687500000000000E+000 0.000000000000000E+000
 0.145833333333333E+000 0.687500000000000E+000 0.000000000000000E+000
 0.170928030303030E+000 0.599905303030303E+000 0.000000000000000E+000
 0.147964015151515E+000 0.581202651515151E+000 0.000000000000000E+000
 0.305246273164894E+000 0.513675934570522E+000 0.000000000000000E+000
 0.352096915741766E+000 0.511231483642630E+000 0.000000000000000E+000
 0.330238305543935E+000 0.542481483642630E+000 0.000000000000000E+000
 0.329193831483532E+000 0.522462967285261E+000 0.000000000000000E+000
 0.260561510673831E+000 0.624052652120244E+000 0.000000000000000E+000
 0.215619781077549E+000 0.612955634620970E+000 0.000000000000000E+000
 0.235861258350276E+000 0.584901657348243E+000 0.000000000000000E+000
 0.237347516700552E+000 0.607303314696485E+000 0.000000000000000E+000
 0.283459966365463E+000 0.614701326362668E+000 0.000000000000000E+000
 0.283144428083816E+000 0.588600663181334E+000 0.000000000000000E+000
 0.270436824334832E+000 0.721383664924000E+000 0.000000000000000E+000
 0.287324576658387E+000 0.666784659696001E+000 0.000000000000000E+000
 0.290873648669663E+000 0.692767329848001E+000 0.000000000000000E+000
 0.219626174696598E+000 0.507759261420408E+000 0.000000000000000E+000
 0.260015115453060E+000 0.512807879014966E+000 0.000000000000000E+000
 0.236553258029932E+000 0.541613428087075E+000 0.000000000000000E+000
 0.238731516059863E+000 0.520726856174150E+000 0.000000000000000E+000
 0.268237285807709E+000 0.448731483642630E+000 0.000000000000000E+000
 0.307299785807709E+000 0.448731483642630E+000 0.000000000000000E+000
 0.286474571615419E+000 0.459962967285261E+000 0.000000000000000E+000
 0.367713796600723E+000 0.531250000000000E+000 0.000000000000000E+000
 0.367713796600723E+000 0.593750000000000E+000 0.000000000000000E+000
 0.345855186402893E+000 0.562500000000000E+000 0.000000000000000E+000
 0.360427593201446E+000 0.562500000000000E+000 0.000000000000000E+000
 0.306897466365463E+000 0.625117993029335E+000 0.000000000000000E+000
 0.330651103844078E+000 0.585966998257334E+000 0.000000000000000E+000
 0.352509714041908E+000 0.617216998257334E+000 0.000000000000000E+000
 0.330019428083816E+000 0.609433996514667E+000 0.000000000000000E+000
 0.368974240226980E+000 0.656250000000000E+000 0.000000000000000E+000
 0.368974240226980E+000 0.718750000000000E+000 0.000000000000000E+000
 0.350896960907920E+000 0.687500000000000E+000 0.000000000000000E+000
 0.362948480453960E+000 0.687500000000000E+000 0.000000000000000E+000
 0.330063627574587E+000 0.708333333333333E+000 0.000000000000000E+000
 0.348140906893647E+000 0.739583333333333E+000 0.000000000000000E+000
 0.321281813787293E+000 0.729166666666667E+000 0.000000000000000E+000
 0.304719976564171E+000 0.492842601237188E+000 0.000000000000000E+000
 0.328133119141043E+000 0.459148150309297E+000 0.000000000000000E+000
 0.328141238282086E+000 0.480796300618594E+000 0.000000000000000E+000
 0.285783179012346E+000 0.373070987654321E+000 0.000000000000000E+000
 0.307773919753086E+000 0.421392746913580E+000 0.000000000000000E+000
 0.268711419753086E+000 0.421392746913580E+000 0.000000000000000E+000
 0.287422839506173E+000 0.405285493827160E+000 0.000000000000000E+000
 0.283179012345679E+000 0.315297067901235E+000 0.000000000000000E+000
 0.266107253086420E+000 0.269868827160494E+000 0.000000000000000E+000
 0.282214506172839E+000 0.289737654320988E+000 0.000000000000000E+000
 0.306616512345679E+000 0.362654320987654E+000 0.000000000000000E+000
 0.352044753086420E+000 0.379726080246914E+000 0.000000000000000E+000
 0.328607253086420E+000 0.410976080246914E+000 0.000000000000000E+000
 0.329089506172839E+000 0.384452160493827E+000 0.000000000000000E+000
 0.343750000000000E+000 0.254726080246914E+000 0.000000000000000E+000
 0.312500000000000E+000 0.268904320987654E+000 0.000000000000000E+000
 0.312500000000000E+000 0.259452160493827E+000 0.000000000000000E+000
 0.364583333333333E+000 0.338059413580247E+000 0.000000000000000E+000
 0.333333333333333E+000 0.289737654320988E+000 0.000000000000000E+000
 0.364583333333333E+000 0.275559413580247E+000 0.000000000000000E+000
 0.354166666666667E+000 0.301118827160494E+000 0.000000000000000E+000
 0.401763554741336E+000 0.369547401570504E+000 0.000000000000000E+000
 0.464263554741336E+000 0.384439606282016E+000 0.000000000000000E+000
 0.428527109482671E+000 0.364094803141008E+000 0.000000000000000E+000
 0.380930221408002E+000 0.343750000000000E+000 0.000000000000000E+000
 0.635416666666667E+000 0.270833333333333E+000 0.000000000000000E+000
 0.666666666666667E+000 0.270833333333333E+000 0.000000000000000E+000
 0.635416666666667E+000 0.333333333333333E+000 0.000000000000000E+000
 0.645833333333333E+000 0.291666666666667E+000 0.000000000000000E+000
 0.616473960088800E+000 0.406250000000000E+000 0.000000000000000E+000
 0.619232338062741E+000 0.343750000000000E+000 0.000000000000000E+000
 0.584705704840506E+000 0.372051140138212E+000 0.000000000000000E+000
[...]
CELL_DATA         1161
SCALARS opt_tdens double 1
LOOKUP_TABLE default
 0.100000000000000E-014
 0.100000000000000E-014
 0.100000000000000E-014
 0.100000000000000E-014
 0.100000000000000E-014
 0.411939254749861E-002
 0.100000000000000E-014
 0.707329097969000E-002
 0.100000000000000E-014
 0.100000000000000E-014
 0.707329098002705E-002
 0.411939254773981E-002
 0.975612154385276E-014
 0.100000000000000E-014
 0.100000000000000E-014
 0.100000000000000E-014
 0.100000000000000E-014
 0.100000000000000E-014
 0.411939254727108E-002
 0.100000000000000E-014
 0.100000000000000E-014
 0.100000000000000E-014
 0.100000000000000E-014
 0.100000000000000E-014
 0.178235763947891E-001
 0.100000000000000E-014
 0.100000000000000E-014
 0.168950055432477E-002
 0.100000000000000E-014
 0.100000000000000E-014
 0.100000000000000E-014
 0.100000000000000E-014
 0.100000000000000E-014
 0.100000000000000E-014
 0.100000000000000E-014
 0.425727462437024E-002
 0.100000000000000E-014
 0.548468278592604E-014
 0.100000000000000E-014
 0.204106329621235E-013
 0.731004434538558E-002
 0.100049805188953E-014
 0.100000000000000E-014
 0.100000000000000E-014
 0.194817940196772E-014
 0.100000000000000E-014
 0.425727462440529E-002
 0.425727462442457E-002
 0.100000000000000E-014
 0.100000000000000E-014
 0.100000000000000E-014
 0.100000000000000E-014
 0.100000000000000E-014
 0.100000000000000E-014
 0.382687134941936E-014
 0.132367541068067E-001
 0.100000000000000E-014
 0.100000000000000E-014
 0.100000000000000E-014
 0.256130089560190E-001
 0.100000000000000E-014
 0.100000000000000E-014
 0.100000000000000E-014
 0.100000000000000E-014
 0.100000000000000E-014
 0.100000000000000E-014
 0.100000000000000E-014
 0.168950055433049E-002
 0.237836392309967E-014
 0.100000000000000E-014
 0.100000000000000E-014
 0.168950055432234E-002
 0.100000000000000E-014
 0.425727462439691E-002
 0.100000000000000E-014
 0.100000000000000E-014
 0.100000000000000E-014
 0.168950055431785E-002
 0.100000000000000E-014
 0.103347733175471E-014
 0.100000000000000E-014
 0.100000000000000E-014
 0.100000000000000E-014
 0.168950055432223E-002
 0.168950055432305E-002
 0.545311525534665E-014
 0.298976471671355E-014
 0.100000000000000E-014
 0.391110133505217E-014
 0.100000000000000E-014
 0.100000000000000E-014
 0.100000000000000E-014
 0.100000000000000E-014
 0.187836577092360E-014
 0.100000000000000E-014
 0.731004434550883E-002
 0.100000000000000E-014
 0.106155211939069E+000
 0.100000000000000E-014
 0.138996509140451E+000
 0.100000000000000E-014
 0.168950055431026E-002
 0.100000000000000E-014
 0.100000000000000E-014
 0.100000000000000E-014
 0.100000000000000E-014
 0.425727462441223E-002
 0.163478201584294E-002
 0.100000000000000E-014
 0.100000000000000E-014
 0.100000000000000E-014
 0.100000000000000E-014
 0.100000000000000E-014
 0.100000000000000E-014
 0.411939254752125E-002
 0.100000000000000E-014
 0.100000000000000E-014
 0.425814640783157E-014
 0.100000000000000E-014
 0.100000000000000E-014
 0.163478201584328E-002
 0.100000000000000E-014
 0.100000000000000E-014
 0.100000000000000E-014
 0.100000000000000E-014
 0.100000000000000E-014
 0.100000000000000E-014
 0.163478201584161E-002
 0.100000000000000E-014
 0.100000000000000E-014
 0.100000000000000E-014
 0.100000000000000E-014
 0.100000000000000E-014
 0.100000000000000E-014
 0.100000000000000E-014
 0.163478201584893E-002
 0.100000000000000E-014
 0.280134440518582E-014
 0.100000000000000E-014
 0.100000000000000E-014
 0.100000000000000E-014
 0.100000000000000E-014
 0.267326293419086E-014
 0.163478201583886E-002
 0.923732129937021E-014
 0.896282123875505E-014
 0.163478201584304E-002
 0.100000000000000E-014
 0.100000000000000E-014
 0.100000000000000E-014
 0.100000000000000E-014
 0.378933220222780E-013
 0.100000000000000E-014
 0.100000000000000E-014
 0.100000000000000E-014
 0.100000000000000E-014
 0.100000000000000E-014
 0.100000000000000E-014
 0.100000000000000E-014
 0.100000000000000E-014
 0.100000000000000E-014
 0.100000000000000E-014
 0.163478201565864E-002
 0.103802187667100E-001
 0.103802187667521E-001
 0.154007258366796E-014
 0.100000000000000E-014
 0.100000000000000E-014
 0.100000000000000E-014
 0.100000000000000E-014
 0.100000000000000E-014
 0.100000000000000E-014
 0.100000000000000E-014
 0.306043526283022E-001
 0.100000000000000E-014
 0.100000000000000E-014
 0.100000000000000E-014
 0.100000000000000E-014
 0.119641945692035E-014
 0.707329097963935E-002
 0.100000000000000E-014
 0.100000000000000E-014
 0.411939254746513E-002
 0.163478201586851E-002
 0.100000000000000E-014
 0.100000000000000E-014
 0.100000000000000E-014
 0.204062435673411E-013
 0.100000000000000E-014
 0.413315715537618E-001
 0.100000000000000E-014
 0.116960709528681E+000
 0.100000000000000E-014
 0.516435563584191E-001
 0.100000000000000E-014
 0.507914165347499E-014
 0.100000000000000E-014
 0.411939254750246E-002
 0.100000000000000E-014
 0.100000000000000E-014
 0.746649568120584E-014
 0.100000000000000E-014
 0.163478201583234E-002
 0.100000000000000E-014
 0.100000000000000E-014
 0.126716532391805E-014
 0.100000000000000E-014
 0.707329097967321E-002
 0.100000000000000E-014
 0.100000000000000E-014
 0.163478201584353E-002
 0.103802187668125E-001
 0.211482451540735E-014
 0.261565122537449E-001
 0.100000000000000E-014
 0.100000000000000E-014
 0.100000000000000E-014
 0.100000000000000E-014
 0.499709555896968E-001
 0.100000000000000E-014
 0.100000000000000E-014
 0.100000000000000E-014
 0.100000000000000E-014
 0.100000000000000E-014
 0.100000000000000E-014
 0.605977278816932E-014
 0.100000000000000E-014
 0.100000000000000E-014
 0.100000000000000E-014
 0.707329097953912E-002
 0.100000000000000E-014
 0.411939254733313E-002
 0.100000000000000E-014
 0.100000000000000E-014
 0.100000000000000E-014
 0.839382216676214E-014
 0.100000000000000E-014
 0.100000000000000E-014
 0.100000000000000E-014
 0.100000000000000E-014
 0.308594664499362E-014
 0.163478201583071E-002
 0.178235763949043E-001
 0.100000000000000E-014
 0.163478201584422E-002
 0.100000000000000E-014
 0.100000000000000E-014
 0.100000000000000E-014
 0.411939254750515E-002
 0.100000000000000E-014
 0.100000000000000E-014
 0.100000000000000E-014
 0.100000000000000E-014
 0.100000000000000E-014
 0.100000000000000E-014
 0.411939254750645E-002
 0.163478201584491E-002
 0.100000000000000E-014
 0.100000000000000E-014
 0.100000000000000E-014
 0.100000000000000E-014
 0.100000000000000E-014
 0.100000000000000E-014
 0.100000000000000E-014
 0.163478201584153E-002
 0.100000000000000E-014
 0.100000000000000E-014
 0.411939254750038E-002
 0.100000000000000E-014
 0.100000000000000E-014
 0.100000000000000E-014
 0.100000000000000E-014
 0.105680236053516E-014
 0.100000000000000E-014
 0.182394476251686E-014
 0.100000000000000E-014
 0.100000000000000E-014
 0.100000000000000E-014
 0.100000000000000E-014
 0.100000000000000E-014
 0.100000000000000E-014
 0.100000000000000E-014
 0.100000000000000E-014
 0.163478201485672E-002
 0.178679123798905E-012
 0.100000000000000E-014
 0.163478201592996E-002
 0.415777778181789E-013
 0.100000000000000E-014
 0.100000000000000E-014
 0.100000000000000E-014
 0.100000000000000E-014
 0.100000000000000E-014
 0.100000000000000E-014
 0.100000000000000E-014
 0.100000000000000E-014
 0.100000000000000E-014
 0.411939254745617E-002
 0.115999489970502E-014
 0.707329097964555E-002
 0.100000000000000E-014
 0.100000000000000E-014
 0.261565122532702E-001
 0.992631060076287E-014
 0.100000000000000E-014
 0.100000000000000E-014
 0.100000000000000E-014
 0.352203108557615E-001
 0.100000000000000E-014
 0.100000000000000E-014
 0.106499521438242E-014
 0.163478201584173E-002
 0.100000000000000E-014
 0.100000000000000E-014
 0.100000000000000E-014
 0.124556736103021E-014
 0.163478201580258E-002
 0.100000000000000E-014
 0.100000000000000E-014
 0.411939254750117E-002
 0.100000000000000E-014
 0.100000000000000E-014
 0.100000000000000E-014
 0.100000000000000E-014
 0.100000000000000E-014
 0.100000000000000E-014
 0.163478201584173E-002
 0.100000000000000E-014
 0.100000000000000E-014
 0.100000000000000E-014
 0.100000000000000E-014
 0.100000000000000E-014
 0.163478201584054E-002
 0.100000000000000E-014
 0.100000000000000E-014
 0.100000000000000E-014
 0.100000000000000E-014
 0.163478201584430E-002
 0.100000000000000E-014
 0.100000000000000E-014
 0.100000000000000E-014
 0.163478201584415E-002
 0.100000000000000E-014
 0.100000000000000E-014
 0.160682796314430E-014
 0.100000000000000E-014
 0.100000000000000E-014
 0.100000000000000E-014
 0.100000000000000E-014
 0.163478201583776E-002
 0.100000000000000E-014
 0.275091889009885E-014
 0.149740173634591E-013
 0.100000000000000E-014
 0.100000000000000E-014
 0.100000000000000E-014
 0.163478201579654E-002
 0.100000000000000E-014
 0.100000000000000E-014
 0.100000000000000E-014
 0.163478201580922E-002
 0.139771896256374E-001
 0.100000000000000E-014
 0.100000000000000E-014
 0.100000000000000E-014
 0.707329097970154E-002
 0.100000000000000E-014
 0.100000000000000E-014
 0.352203108558725E-001
 0.100000000000000E-014
 0.100000000000000E-014
 0.100000000000000E-014
 0.100000000000000E-014
 0.178235763947134E-001
 0.100000000000000E-014
 0.100000000000000E-014
 0.103802187667769E-001
 0.100000000000000E-014
 0.100000000000000E-014
 0.100000000000000E-014
 0.100000000000000E-014
 0.139771896257866E-001
 0.100000000000000E-014
 0.100000000000000E-014
 0.100000000000000E-014
 0.100000000000000E-014
 0.100000000000000E-014
 0.241940263942495E-014
 0.100000000000000E-014
 0.163478201583981E-002
 0.100000000000000E-014
 0.100000000000000E-014
 0.707329097970149E-002
 0.100000000000000E-014
 0.390357024911204E-014
 0.100000000000000E-014
 0.100000000000000E-014
 0.100000000000000E-014
 0.411939254749818E-002
 0.100000000000000E-014
 0.100000000000000E-014
 0.100000000000000E-014
 0.707329097969029E-002
 0.163478201583661E-002
 0.100000000000000E-014
 0.352203108557620E-001
 0.100000000000000E-014
 0.100000000000000E-014
 0.100000000000000E-014
 0.100000000000000E-014
 0.100000000000000E-014
 0.100000000000000E-014
 0.325730794959906E-014
 0.100000000000000E-014
 0.103802187667874E-001
 0.163478201584398E-002
 0.100000000000000E-014
 0.100000000000000E-014
 0.100000000000000E-014
 0.100000000000000E-014
 0.100000000000000E-014
 0.100000000000000E-014
 0.100000000000000E-014
 0.100000000000000E-014
 0.119336456377759E-013
 0.100000000000000E-014
 0.159853353636058E-013
 0.163478201583176E-002
 0.100000000000000E-014
 0.163478201581739E-002
 0.163478201583700E-002
 0.411939254749663E-002
 0.100000000000000E-014
 0.707329097964251E-002
 0.100000000000000E-014
 0.100000000000000E-014
 0.163478201583956E-002
 0.100000000000000E-014
 0.163478201581039E-002
 0.100000000000000E-014
 0.100000000000000E-014
 0.351644706481889E-014
 0.100000000000000E-014
 0.100000000000000E-014
 0.129266429596360E-014
 0.163478201584294E-002
 0.411939254749266E-002
 0.380701959821928E-014
 0.100000000000000E-014
 0.100000000000000E-014
 0.218905784657877E-001
 0.100000000000000E-014
 0.115296658878159E-014
 0.100000000000000E-014
 0.163478201582297E-002
 0.445848125135722E-014
 0.100000000000000E-014
 0.103802187667983E-001
 0.100000000000000E-014
 0.171142205687442E-013
 0.100000000000000E-014
 0.100000000000000E-014
 0.100000000000000E-014
 0.139771896259786E-001
 0.100000000000000E-014
 0.100000000000000E-014
 0.100000000000000E-014
 0.119343717678991E-014
 0.163478201582904E-002
 0.100000000000000E-014
 0.163478201576478E-002
 0.100000000000000E-014
 0.100000000000000E-014
 0.100000000000000E-014
 0.411939254740549E-002
 0.100000000000000E-014
 0.554135658983160E-014
 0.100000000000000E-014
 0.411939254747709E-002
 0.142942041196402E-014
 0.163478201583838E-002
 0.192837239281621E-014
 0.100000000000000E-014
 0.100000000000000E-014
 0.170561125699382E-014
 0.100000000000000E-014
 0.100000000000000E-014
 0.100000000000000E-014
 0.100000000000000E-014
 0.100000000000000E-014
 0.411939254751739E-002
 0.100000000000000E-014
 0.100000000000000E-014
 0.163478201584443E-002
 0.100000000000000E-014
 0.100000000000000E-014
 0.100000000000000E-014
 0.100000000000000E-014
 0.163478201572083E-002
 0.100000000000000E-014
 0.100000000000000E-014
 0.192149210612498E-013
 0.100000000000000E-014
 0.100000000000000E-014
 0.491962868848460E-013
 0.163478201566249E-002
 0.126609130953309E-013
 0.100000000000000E-014
 0.100000000000000E-014
 0.461230920287493E-014
 0.100000000000000E-014
 0.100000000000000E-014
 0.100000000000000E-014
 0.100000000000000E-014
 0.100000000000000E-014
 0.100000000000000E-014
 0.163478201585832E-002
 0.100000000000000E-014
 0.100000000000000E-014
 0.100000000000000E-014
 0.163478201582616E-002
 0.100000000000000E-014
 0.100000000000000E-014
 0.100000000000000E-014
 0.100000000000000E-014
 0.100000000000000E-014
 0.100000000000000E-014
 0.100000000000000E-014
 0.163478201584990E-002
 0.100000000000000E-014
 0.133875092179977E-014
 0.100000000000000E-014
 0.100000000000000E-014
 0.707329097966178E-002
 0.100000000000000E-014
 0.172349251134931E-014
 0.100000000000000E-014
 0.100000000000000E-014
 0.103802187667338E-001
 0.100000000000000E-014
 0.551608012078064E-001
 0.100000000000000E-014
 0.100000000000000E-014
 0.100000000000000E-014
 0.100000000000000E-014
 0.100000000000000E-014
 0.100000000000000E-014
 0.100000000000000E-014
 0.100000000000000E-014
 0.106929359664745E+000
 0.100000000000000E-014
 0.714592433354181E-001
 0.100000000000000E-014
 0.100000000000000E-014
 0.100000000000000E-014
 0.163478201585235E-002
 0.100000000000000E-014
 0.145654480514731E+000
 0.762430519085207E-014
 0.163478201584301E-002
 0.707329097965670E-002
 0.139771896257683E-001
 0.100000000000000E-014
 0.163478201581988E-002
 0.100000000000000E-014
 0.100000000000000E-014
 0.100000000000000E-014
 0.100000000000000E-014
 0.100000000000000E-014
 0.150445795757606E-014
 0.100000000000000E-014
 0.100000000000000E-014
 0.163478201583918E-002
 0.100000000000000E-014
 0.100000000000000E-014
 0.163478201584001E-002
 0.100000000000000E-014
 0.100000000000000E-014
 0.100000000000000E-014
 0.100000000000000E-014
 0.100000000000000E-014
 0.100000000000000E-014
 0.163478201584341E-002
 0.100000000000000E-014
 0.100000000000000E-014
 0.100000000000000E-014
 0.100000000000000E-014
 0.100000000000000E-014
 0.100000000000000E-014
 0.714592433355363E-001
 0.100000000000000E-014
 0.100000000000000E-014
 0.100000000000000E-014
 0.411939254765016E-002
 0.285800886079325E-014
 0.139771896254598E-001
 0.163478201584362E-002
 0.100000000000000E-014
 0.100000000000000E-014
 0.178235763944558E-001
 0.176916396487985E-014
 0.100000000000000E-014
 0.100000000000000E-014
 0.163478201583551E-002
 0.100000000000000E-014
 0.100000000000000E-014
 0.100000000000000E-014
 0.100000000000000E-014
 0.163478201582712E-002
 0.100000000000000E-014
 0.284286293523423E-014
 0.139771896259998E-001
 0.113172655675001E+000
 0.100000000000000E-014
 0.173039441450337E+000
 0.100000000000000E-014
 0.100000000000000E-014
 0.100000000000000E-014
 0.100000000000000E-014
 0.100000000000000E-014
 0.100000000000000E-014
 0.163478201584488E-002
 0.100000000000000E-014
 0.150025391816930E-013
 0.100000000000000E-014
 0.163478201578304E-002
 0.372170040192514E-014
 0.100000000000000E-014
 0.163478201583004E-002
 0.311552158618367E-013
 0.122367975053448E-014
 0.106462951465016E-014
 0.100000000000000E-014
 0.551608012076006E-001
 0.100000000000000E-014
 0.163478201581919E-002
 0.171004295371106E-014
 0.163478201583096E-002
 0.139771896256119E-001
 0.397507515096126E-001
 0.107239412078552E+000
 0.100000000000000E-014
 0.100000000000000E-014
 0.397507515096166E-001
 0.104561281742223E-014
 0.887496220646148E-001
 0.246655455623005E+000
 0.100000000000000E-014
 0.229751304163470E-014
 0.104655352205634E-014
 0.168950055431133E-002
 0.165639349951063E-013
 0.168950055426070E-002
 0.100000000000000E-014
 0.147359197406697E-014
 0.100000000000000E-014
 0.290148172650747E-014
 0.100000000000000E-014
 0.270320088690832E-001
 0.100000000000000E-014
 0.100000000000000E-014
 0.100000000000000E-014
 0.168950055432084E-002
 0.184201574930132E-001
 0.100000000000000E-014
 0.425727462432054E-002
 0.100000000000000E-014
 0.100000000000000E-014
 0.100000000000000E-014
 0.100000000000000E-014
 0.165274016923640E-014
 0.100000000000000E-014
 0.100000000000000E-014
 0.731004434550201E-002
 0.100000000000000E-014
 0.100000000000000E-014
 0.100000000000000E-014
 0.100000000000000E-014
 0.236577495325036E-014
 0.796993926889083E-001
 0.796993926888283E-001
 0.232892144278087E-014
 0.100000000000000E-014
 0.100000000000000E-014
 0.139343012076891E-013
 0.397507515097115E-001
 0.246655455622854E+000
 0.867691905244062E-014
 0.181637151626893E-014
 0.100000000000000E-014
 0.991971803865049E-014
 0.100000000000000E-014
 0.100000000000000E-014
 0.100000000000000E-014
 0.168950055430804E-002
 0.100000000000000E-014
 0.100000000000000E-014
 0.100000000000000E-014
 0.100000000000000E-014
 0.100000000000000E-014
 0.168950055432109E-002
 0.100000000000000E-014
 0.100000000000000E-014
 0.100000000000000E-014
 0.100000000000000E-014
 0.100000000000000E-014
 0.184201574930870E-001
 0.731004434547482E-002
 0.425727462437790E-002
 0.100000000000000E-014
 0.100000000000000E-014
 0.100000000000000E-014
 0.168950055432441E-002
 0.425727462440860E-002
 0.100000000000000E-014
 0.100000000000000E-014
 0.100000000000000E-014
 0.100000000000000E-014
 0.100000000000000E-014
 0.100000000000000E-014
 0.100000000000000E-014
 0.168950055432312E-002
 0.100000000000000E-014
 0.100000000000000E-014
 0.100000000000000E-014
 0.100000000000000E-014
 0.100000000000000E-014
 0.100000000000000E-014
 0.331712002923925E-014
 0.100000000000000E-014
 0.100000000000000E-014
 0.629849481733725E-002
 0.100000000000000E-014
 0.100000000000000E-014
 0.168950055614151E-002
 0.168950055426213E-002
 0.681163939907797E-001
 0.100000000000000E-014
 0.100000000000000E-014
 0.100000000000000E-014
 0.100624297396172E-014
 0.100000000000000E-014
 0.100000000000000E-014
 0.202330369469971E-013
 0.100000000000000E-014
 0.100000000000000E-014
 0.100000000000000E-014
 0.100000000000000E-014
 0.100000000000000E-014
 0.100000000000000E-014
 0.100000000000000E-014
 0.882322243013188E-014
 0.625000000000943E-001
 0.100000000000000E-014
 0.100000000000000E-014
 0.100000000000000E-014
 0.100000000000000E-014
 0.168950055430156E-002
 0.100000000000000E-014
 0.226232880552948E-001
 0.100000000000000E-014
 0.731004434558879E-002
 0.100000000000000E-014
 0.168950055403570E-002
 0.168950055458927E-002
 0.363991860307139E-001
 0.102601989396097E-014
 0.475180199760015E-014
 0.858622450544717E-013
 0.100000000000000E-014
 0.100000000000000E-014
 0.100000000000000E-014
 0.100000000000000E-014
 0.100000000000000E-014
 0.100000000000000E-014
 0.100000000000000E-014
 0.100000000000000E-014
 0.464158883363200E-001
 0.120352973215427E-014
 0.100000000000000E-014
 0.100000000000000E-014
 0.100000000000000E-014
 0.100000000000000E-014
 0.100000000000000E-014
 0.100000000000000E-014
 0.100000000000000E-014
 0.100000000000000E-014
 0.950130066097969E-014
 0.338203930357316E-002
 0.226232880559672E-001
 0.237204623969165E-013
 0.100000000000000E-014
 0.437128049460431E-014
 0.100000000000000E-014
 0.184201574932297E-001
 0.100000000000000E-014
 0.168950055430756E-002
 0.179573541024670E-014
 0.100000000000000E-014
 0.100000000000000E-014
 0.100000000000000E-014
 0.100000000000000E-014
 0.101293260212056E-014
 0.168950055431074E-002
 0.100000000000000E-014
 0.223282524408113E-014
 0.100000000000000E-014
 0.100000000000000E-014
 0.100000000000000E-014
 0.243914831801892E-002
 0.366577547015470E-013
 0.365289901339419E-003
 0.100000000000000E-014
 0.100000000000000E-014
 0.100000000000000E-014
 0.100000000000000E-014
 0.100000000000000E-014
 0.100000000000000E-014
 0.100000000000000E-014
 0.100000000000000E-014
 0.100000000000000E-014
 0.168950055429741E-002
 0.100000000000000E-014
 0.100000000000000E-014
 0.425727462436729E-002
 0.140873431592532E-014
 0.100000000000000E-014
 0.100000000000000E-014
 0.100000000000000E-014
 0.100000000000000E-014