# vtk DataFile Version 3.0
Unstructured Grid
ASCII
DATASET UNSTRUCTURED_GRID
FIELD FieldData 1
TIME 1 1 float
  0.185833E+02
POINTS          169 double
 0.000000000000000E+000 0.000000000000000E+000 0.000000000000000E+000
 0.100000000000000E+001 0.000000000000000E+000 0.000000000000000E+000
 0.100000000000000E+001 0.100000000000000E+001 0.000000000000000E+000
 0.000000000000000E+000 0.100000000000000E+001 0.000000000000000E+000
 0.125000000000000E+000 0.250000000000000E+000 0.000000000000000E+000
 0.375000000000000E+000 0.250000000000000E+000 0.000000000000000E+000
 0.375000000000000E+000 0.750000000000000E+000 0.000000000000000E+000
 0.125000000000000E+000 0.750000000000000E+000 0.000000000000000E+000
 0.625000000000000E+000 0.250000000000000E+000 0.000000000000000E+000
 0.875000000000000E+000 0.250000000000000E+000 0.000000000000000E+000
 0.875000000000000E+000 0.750000000000000E+000 0.000000000000000E+000
 0.625000000000000E+000 0.750000000000000E+000 0.000000000000000E+000
 0.100000000000000E+001 0.500000000000000E+000 0.000000000000000E+000
 0.000000000000000E+000 0.500000000000000E+000 0.000000000000000E+000
 0.500000000000000E+000 0.000000000000000E+000 0.000000000000000E+000
 0.125000000000000E+000 0.500000000000000E+000 0.000000000000000E+000
 0.000000000000000E+000 0.750000000000000E+000 0.000000000000000E+000
 0.000000000000000E+000 0.250000000000000E+000 0.000000000000000E+000
 0.000000000000000E+000 0.875000000000000E+000 0.000000000000000E+000
 0.000000000000000E+000 0.125000000000000E+000 0.000000000000000E+000
 0.625000000000000E-001 0.812500000000000E+000 0.000000000000000E+000
 0.125000000000000E+000 0.375000000000000E+000 0.000000000000000E+000
 0.125000000000000E+000 0.625000000000000E+000 0.000000000000000E+000
 0.500000000000000E+000 0.100000000000000E+001 0.000000000000000E+000
 0.250000000000000E+000 0.100000000000000E+001 0.000000000000000E+000
 0.125000000000000E+000 0.100000000000000E+001 0.000000000000000E+000
 0.729166666666667E-001 0.885416666666667E+000 0.000000000000000E+000
 0.000000000000000E+000 0.625000000000000E+000 0.000000000000000E+000
 0.625000000000000E-001 0.562500000000000E+000 0.000000000000000E+000
 0.375000000000000E+000 0.500000000000000E+000 0.000000000000000E+000
 0.375000000000000E+000 0.100000000000000E+001 0.000000000000000E+000
 0.250000000000000E+000 0.000000000000000E+000 0.000000000000000E+000
 0.625000000000000E-001 0.187500000000000E+000 0.000000000000000E+000
 0.143518518518519E+000 0.775462962962963E-001 0.000000000000000E+000
 0.156250000000000E+000 0.156250000000000E+000 0.000000000000000E+000
 0.729166666666667E-001 0.114583333333333E+000 0.000000000000000E+000
 0.125000000000000E+000 0.000000000000000E+000 0.000000000000000E+000
 0.250000000000000E+000 0.250000000000000E+000 0.000000000000000E+000
 0.375000000000000E+000 0.000000000000000E+000 0.000000000000000E+000
 0.187500000000000E+000 0.218750000000000E+000 0.000000000000000E+000
 0.312500000000000E+000 0.762453007518797E-001 0.000000000000000E+000
 0.270259392278489E+000 0.159169301283415E+000 0.000000000000000E+000
 0.365310977506407E+000 0.155367112827996E+000 0.000000000000000E+000
 0.312500000000000E+000 0.216265619131990E+000 0.000000000000000E+000
 0.500000000000000E+000 0.189389379011873E+000 0.000000000000000E+000
 0.426456487258648E+000 0.196919158251449E+000 0.000000000000000E+000
 0.451620395371675E+000 0.941243892751461E-001 0.000000000000000E+000
 0.381804756165356E+000 0.871724813114945E-001 0.000000000000000E+000
 0.437500000000000E+000 0.273708879364394E-001 0.000000000000000E+000
 0.000000000000000E+000 0.375000000000000E+000 0.000000000000000E+000
 0.625000000000000E-001 0.312500000000000E+000 0.000000000000000E+000
 0.250000000000000E+000 0.750000000000000E+000 0.000000000000000E+000
 0.158482142857143E+000 0.851934523809524E+000 0.000000000000000E+000
 0.210861885404568E+000 0.921875000000000E+000 0.000000000000000E+000
 0.136017278952732E+000 0.925863358051789E+000 0.000000000000000E+000
 0.625000000000000E-001 0.687500000000000E+000 0.000000000000000E+000
 0.250000000000000E+000 0.437500000000000E+000 0.000000000000000E+000
 0.247528011619582E+000 0.839830719156545E+000 0.000000000000000E+000
 0.312500000000000E+000 0.796669265575374E+000 0.000000000000000E+000
 0.419664368355990E+000 0.875000000000000E+000 0.000000000000000E+000
 0.313183356674252E+000 0.918387829019328E+000 0.000000000000000E+000
 0.312500000000000E+000 0.100000000000000E+001 0.000000000000000E+000
 0.380617553087688E+000 0.931527612480385E+000 0.000000000000000E+000
 0.187500000000000E+000 0.785936956899548E+000 0.000000000000000E+000
 0.350379273974835E+000 0.857317802397078E+000 0.000000000000000E+000
 0.228046514569416E+000 0.817347524546315E-001 0.000000000000000E+000
 0.187500000000000E+000 0.312500000000000E+000 0.000000000000000E+000
 0.625000000000000E-001 0.437500000000000E+000 0.000000000000000E+000
 0.197916666666667E+000 0.385416666666667E+000 0.000000000000000E+000
 0.375000000000000E+000 0.375000000000000E+000 0.000000000000000E+000
 0.750000000000000E+000 0.000000000000000E+000 0.000000000000000E+000
 0.625000000000000E-001 0.959280303030303E+000 0.000000000000000E+000
 0.234375000000000E+000 0.562500000000000E+000 0.000000000000000E+000
 0.187500000000000E+000 0.687500000000000E+000 0.000000000000000E+000
 0.193892045454545E+000 0.618607954545455E+000 0.000000000000000E+000
 0.375000000000000E+000 0.625000000000000E+000 0.000000000000000E+000
 0.283775504647110E+000 0.640801989544002E+000 0.000000000000000E+000
 0.281298714846257E+000 0.504888901855782E+000 0.000000000000000E+000
 0.331282779604339E+000 0.562500000000000E+000 0.000000000000000E+000
 0.338845441361880E+000 0.687500000000000E+000 0.000000000000000E+000
 0.500000000000000E+000 0.775815254846569E+000 0.000000000000000E+000
 0.625000000000000E-001 0.407196969696970E-001 0.000000000000000E+000
 0.328125000000000E+000 0.437500000000000E+000 0.000000000000000E+000
 0.284143518518519E+000 0.340856481481482E+000 0.000000000000000E+000
 0.312500000000000E+000 0.278356481481482E+000 0.000000000000000E+000
 0.625000000000000E+000 0.500000000000000E+000 0.000000000000000E+000
 0.410581328448014E+000 0.312500000000000E+000 0.000000000000000E+000
 0.543730092976870E+000 0.258404709955172E+000 0.000000000000000E+000
 0.625000000000000E+000 0.375000000000000E+000 0.000000000000000E+000
 0.500000000000000E+000 0.404784409423024E+000 0.000000000000000E+000
 0.590394028376448E+000 0.312500000000000E+000 0.000000000000000E+000
 0.467392923590959E+000 0.261422480241605E+000 0.000000000000000E+000
 0.508234229043035E+000 0.327522431406248E+000 0.000000000000000E+000
 0.625000000000000E+000 0.000000000000000E+000 0.000000000000000E+000
 0.537311919648379E+000 0.110523699730938E+000 0.000000000000000E+000
 0.750000000000000E+000 0.250000000000000E+000 0.000000000000000E+000
 0.593146640296986E+000 0.172723366619635E+000 0.000000000000000E+000
 0.623771215502605E+000 0.890722450407200E-001 0.000000000000000E+000
 0.687500000000000E+000 0.454068088573020E-001 0.000000000000000E+000
 0.793069391389776E+000 0.125000000000000E+000 0.000000000000000E+000
 0.695513657869308E+000 0.162768437982326E+000 0.000000000000000E+000
 0.687500000000000E+000 0.250000000000000E+000 0.000000000000000E+000
 0.875000000000000E+000 0.500000000000000E+000 0.000000000000000E+000
 0.727921748554044E+000 0.101601148842529E+000 0.000000000000000E+000
 0.759582972952604E+000 0.183381972603444E+000 0.000000000000000E+000
 0.875000000000000E+000 0.375000000000000E+000 0.000000000000000E+000
 0.718750000000000E+000 0.343750000000000E+000 0.000000000000000E+000
 0.697916666666667E+000 0.437500000000000E+000 0.000000000000000E+000
 0.750000000000000E+000 0.572048611111111E+000 0.000000000000000E+000
 0.787123226950355E+000 0.408133865248227E+000 0.000000000000000E+000
 0.804687500000000E+000 0.320312500000000E+000 0.000000000000000E+000
 0.700214460784314E+000 0.513965482026144E+000 0.000000000000000E+000
 0.783021635712153E+000 0.493366127722916E+000 0.000000000000000E+000
 0.625000000000000E+000 0.625000000000000E+000 0.000000000000000E+000
 0.848380638879200E+000 0.437500000000000E+000 0.000000000000000E+000
 0.562500000000000E+000 0.404604515401992E-001 0.000000000000000E+000
 0.875000000000000E+000 0.625000000000000E+000 0.000000000000000E+000
 0.750000000000000E+000 0.750000000000000E+000 0.000000000000000E+000
 0.697046765904942E+000 0.621060933265583E+000 0.000000000000000E+000
 0.200520833333333E+000 0.494791666666667E+000 0.000000000000000E+000
 0.429642360217793E+000 0.800955091165693E+000 0.000000000000000E+000
 0.453073336954457E+000 0.687500000000000E+000 0.000000000000000E+000
 0.548183885155829E+000 0.693587592964698E+000 0.000000000000000E+000
 0.750000000000000E+000 0.100000000000000E+001 0.000000000000000E+000
 0.573843760532799E+000 0.437500000000000E+000 0.000000000000000E+000
 0.500000000000000E+000 0.550126792242997E+000 0.000000000000000E+000
 0.511972906944656E+000 0.477455600833011E+000 0.000000000000000E+000
 0.437507615834863E+000 0.452402202857321E+000 0.000000000000000E+000
 0.546458141439317E+000 0.614345103225503E+000 0.000000000000000E+000
 0.571440414895569E+000 0.547357897962524E+000 0.000000000000000E+000
 0.450991397292447E+000 0.610087136082382E+000 0.000000000000000E+000
 0.875000000000000E+000 0.000000000000000E+000 0.000000000000000E+000
 0.100000000000000E+001 0.250000000000000E+000 0.000000000000000E+000
 0.100000000000000E+001 0.375000000000000E+000 0.000000000000000E+000
 0.687500000000000E+000 0.700324699898860E+000 0.000000000000000E+000
 0.812500000000000E+000 0.687500000000000E+000 0.000000000000000E+000
 0.804621866531165E+000 0.617121866531165E+000 0.000000000000000E+000
 0.825181931429427E+000 0.549770415540467E+000 0.000000000000000E+000
 0.100000000000000E+001 0.625000000000000E+000 0.000000000000000E+000
 0.100000000000000E+001 0.750000000000000E+000 0.000000000000000E+000
[...]
CELL_DATA          303
SCALARS tdens double 1
LOOKUP_TABLE default
 0.538509647042245E-005
 0.164107336641940E-004
 0.395369605614795E+000
 0.443298545834788E-005
 0.536526958144211E-005
 0.543489330827957E-005
 0.704193026675532E-005
 0.326812948084140E-004
 0.355040490881442E-002
 0.341506147180026E-005
 0.192766997080295E-004
 0.581539903403400E-005
 0.116485966506127E-004
 0.374728237640894E-001
 0.108603002288846E-004
 0.439896963658283E+000
 0.382424464678252E-005
 0.386806070363342E-005
 0.512926362574183E-005
 0.697373965104384E-003
 0.141309590461587E-004
 0.376547738411794E-005
 0.411711831761423E-001
 0.444772029691424E-005
 0.389839470820307E-005
 0.779865714781290E-005
 0.440635706549788E-005
 0.165186505653454E-001
 0.696428032687082E-005
 0.259520982757906E-004
 0.507341643917986E-005
 0.491222891475878E-005
 0.404503794948918E-002
 0.110965951939867E-004
 0.188640963980304E-004
 0.489971799184211E-005
 0.361635203200032E-005
 0.769827624468826E-005
 0.588784680810401E-005
 0.343037410987072E-005
 0.389257935267979E-005
 0.490973648438651E-005
 0.442993236765102E+000
 0.277484832390793E-002
 0.203700840608244E+000
 0.118140396271895E-004
 0.779042903105836E-005
 0.517423120274939E-005
 0.445985794624533E-005
 0.888862590151937E-005
 0.440491561059908E-005
 0.716576817398170E-005
 0.403504982181999E-005
 0.356735572041171E-005
 0.504688048515778E-005
 0.621212016053396E-005
 0.109718521342141E-004
 0.120054598590686E-004
 0.535665419200606E-004
 0.543192715900406E-004
 0.332965640474719E-004
 0.423470778671684E-005
 0.439195428960960E-004
 0.334903030848590E-004
 0.790803955337298E-005
 0.118931563264431E-004
 0.993917135129855E-005
 0.118041019510656E-002
 0.235187735964592E-004
 0.191148413258266E-004
 0.197884395656150E-004
 0.778670537858495E-005
 0.179738571848475E-004
 0.680816858256930E-004
 0.114693978031738E-004
 0.357006710448914E-005
 0.937849098313644E-005
 0.129658511043934E-004
 0.994422016454427E-005
 0.106524535136686E-004
 0.403201291609738E-005
 0.439430368301021E-005
 0.685412138701774E-005
 0.132700934316985E-004
 0.856921151196255E-005
 0.515411609897330E-005
 0.144323358589476E-001
 0.757023332406606E-005
 0.400833692561963E-005
 0.494789059155830E-005
 0.402373242681784E-005
 0.490339174260212E-005
 0.389769894954350E-001
 0.402352019209025E-002
 0.510573892135747E-004
 0.113903814565274E-004
 0.213753721865256E-004
 0.274665432115917E-004
 0.102909855795856E-004
 0.168392295422149E-004
 0.108002624344499E-004
 0.121978269457291E-004
 0.888355716189102E-005
 0.897290002345238E-005
 0.423284794387302E-004
 0.254270701508273E-004
 0.316464780933888E-004
 0.126972505373586E-004
 0.835631033831575E-005
 0.898856796950459E-001
 0.354507009497562E-001
 0.907281197024002E-005
 0.390310171587769E-001
 0.712406431619124E-001
 0.572631230258731E-001
 0.265209406249877E+000
 0.143130621544242E-004
 0.342783711495479E-005
 0.377958462692359E-005
 0.109874123632389E-001
 0.419324306399956E-005
 0.197042328424578E+000
 0.724727124337571E-001
 0.415551349558029E-002
 0.340353187499030E-002
 0.190945856296887E-002
 0.172793456423073E+000
 0.252020052444814E+000
 0.555899550642036E+000
 0.128376285131644E+000
 0.756656689048967E-002
 0.338171905064790E-001
 0.706340457963930E+000
 0.190714551371368E+001
 0.305741377515591E-001
 0.402426300320745E-002
 0.254823631423743E-002
 0.532519869411716E-004
 0.386476236827308E-005
 0.361250404023053E-005
 0.190329437071635E-001
 0.531711228959216E+000
 0.208536290720151E-001
 0.333257030942719E+001
 0.140965391282253E-002
 0.166604228596531E-001
 0.628088679337879E-003
 0.138075119397485E-003
 0.445376809981574E-002
 0.703939684906216E-004
 0.426462058205126E-004
 0.516361849991422E-003
 0.858389971398910E+001
 0.747971402993765E-002
 0.242491260000532E-001
 0.754819508627309E-001
 0.100989281524806E-001
 0.583119662544777E-003
 0.700186397379000E-003
 0.120153506925165E-002
 0.505708285476585E-003
 0.126409582079388E-002
 0.549187518736489E-005
 0.147752695183417E-004
 0.116611365605551E-004
 0.109711776048856E-004
 0.307032220271692E-004
 0.286204445673578E-004
 0.113820687440363E-004
 0.516983253150751E-004
 0.637486968401893E-005
 0.384560038031830E+000
 0.109174417461842E-004
 0.393036904238232E-005
 0.387579653123351E-004
 0.911371913484070E-005
 0.117652451388872E-004
 0.252701503183184E-004
 0.443161709559314E-002
 0.332324690853910E+001
 0.101194384561627E+000
 0.757735658719824E-005
 0.946239920103036E-005
 0.927166610727384E-005
 0.377818471950522E-004
 0.201736492457922E-002
 0.695743312908429E-001
 0.428294171203349E+000
 0.353533718086902E-005
 0.744103409867078E-005
 0.306185096004276E+000
 0.259763401768619E+000
 0.644474806706136E-001
 0.617390847777416E-002
 0.610863770948648E-001
 0.422530881539581E-001
 0.658042305339499E-001
 0.714298366598051E-002
 0.212930984055111E+000
 0.884963377360282E-001
 0.283555478075425E-001
 0.817393614505362E-005
 0.151038807727695E-003
 0.343828793213831E-002
 0.440396495650676E-002
 0.100444471101661E-004
 0.994959572193961E-005
 0.168651692851584E-002
 0.340530993897958E-002
 0.165927621515257E+001
 0.554602461282015E+000
 0.443163659653606E+000
 0.418547894979554E-005
 0.143727093026948E-001
 0.386134012788047E-002
 0.193902068627062E-004
 0.187949598230324E-003
 0.917104139076374E+000
 0.136471255129363E-003
 0.395965359754731E-003
 0.257660829760281E-002
 0.119655489757055E-004
 0.479542340790278E-001
 0.305510393943512E-002
 0.113881188028038E+002
 0.372664982871947E+001
 0.793897075848771E-003
 0.414567725695572E-002
 0.239697386603252E-002
 0.496721070260998E-001
 0.251978602129707E-001
 0.152762522016529E-002
 0.179694790015226E+001
 0.202300808600664E-002
 0.701286048936522E+000
 0.204412914828380E+001
 0.446227841788801E+001
 0.755058539979596E-005
 0.702252959337783E-005
 0.231531745606140E-001
 0.445784950065669E-005
 0.411155064320533E+000
 0.955650054277725E-001
 0.361640395657391E-001
 0.722243787376073E-001
 0.249275576870854E-002
 0.287193005892694E-001
 0.400086415804497E-005
 0.484819339490758E-005
 0.630426293688990E-005
 0.455871178115663E-005
 0.523874609066522E-005
 0.465317687092314E-005
 0.373164699880408E-005
 0.370572506733603E-005
 0.400945083234026E-005
 0.575715821991051E-005
 0.387737987007883E-005
 0.430349780547130E-005
 0.263684294803460E-004
 0.158357456484890E-004
 0.104464831672892E-004
 0.136994104904661E-004
 0.112719274099835E-003
 0.223490573434906E-004
 0.414039586510582E-004
 0.940027103912478E-005
 0.643663696277415E-004
 0.102389105053722E-004
 0.251342493081311E-004
 0.452918187461016E-005
 0.756033545185891E-005
 0.117861950451857E-004
 0.100688672551818E-004
 0.160740491386678E-004
 0.108035921053410E-004
 0.933128683197299E-005
 0.786754353433426E-005
 0.243332201045479E-004
 0.549815077966822E-005
 0.444547144911351E-005
 0.746024867773457E-005
 0.342443402946885E-005
 0.354455712590713E-005
 0.128126137797480E-004
 0.614317512594935E-005
 0.444964183935575E-005
 0.445974252389351E-005
 0.517496035728046E-005
 0.468738583744808E-005
 0.991079343523240E-005
 0.528213028593151E-005
 0.460917005030970E-005
 0.646641523133648E-005
 0.705587953931147E-005
 0.388576294132535E-005
 0.569831791371216E-005
 0.449500212757536E-005
 0.552782549147143E-005
 0.403400092704410E-005
 0.432458162387193E-005
 0.360104387069344E-005
 0.357822791268049E-005
