# vtk DataFile Version 3.0
Unstructured Grid
ASCII
DATASET UNSTRUCTURED_GRID
FIELD FieldData 1
TIME 1 1 float
  0.175833E+02
POINTS          169 double
 0.000000000000000E+000 0.000000000000000E+000 0.000000000000000E+000
 0.100000000000000E+001 0.000000000000000E+000 0.000000000000000E+000
 0.100000000000000E+001 0.100000000000000E+001 0.000000000000000E+000
 0.000000000000000E+000 0.100000000000000E+001 0.000000000000000E+000
 0.125000000000000E+000 0.250000000000000E+000 0.000000000000000E+000
 0.375000000000000E+000 0.250000000000000E+000 0.000000000000000E+000
 0.375000000000000E+000 0.750000000000000E+000 0.000000000000000E+000
 0.125000000000000E+000 0.750000000000000E+000 0.000000000000000E+000
 0.625000000000000E+000 0.250000000000000E+000 0.000000000000000E+000
 0.875000000000000E+000 0.250000000000000E+000 0.000000000000000E+000
 0.875000000000000E+000 0.750000000000000E+000 0.000000000000000E+000
 0.625000000000000E+000 0.750000000000000E+000 0.000000000000000E+000
 0.100000000000000E+001 0.500000000000000E+000 0.000000000000000E+000
 0.000000000000000E+000 0.500000000000000E+000 0.000000000000000E+000
 0.500000000000000E+000 0.000000000000000E+000 0.000000000000000E+000
 0.125000000000000E+000 0.500000000000000E+000 0.000000000000000E+000
 0.000000000000000E+000 0.750000000000000E+000 0.000000000000000E+000
 0.000000000000000E+000 0.250000000000000E+000 0.000000000000000E+000
 0.000000000000000E+000 0.875000000000000E+000 0.000000000000000E+000
 0.000000000000000E+000 0.125000000000000E+000 0.000000000000000E+000
 0.625000000000000E-001 0.812500000000000E+000 0.000000000000000E+000
 0.125000000000000E+000 0.375000000000000E+000 0.000000000000000E+000
 0.125000000000000E+000 0.625000000000000E+000 0.000000000000000E+000
 0.500000000000000E+000 0.100000000000000E+001 0.000000000000000E+000
 0.250000000000000E+000 0.100000000000000E+001 0.000000000000000E+000
 0.125000000000000E+000 0.100000000000000E+001 0.000000000000000E+000
 0.729166666666667E-001 0.885416666666667E+000 0.000000000000000E+000
 0.000000000000000E+000 0.625000000000000E+000 0.000000000000000E+000
 0.625000000000000E-001 0.562500000000000E+000 0.000000000000000E+000
 0.375000000000000E+000 0.500000000000000E+000 0.000000000000000E+000
 0.375000000000000E+000 0.100000000000000E+001 0.000000000000000E+000
 0.250000000000000E+000 0.000000000000000E+000 0.000000000000000E+000
 0.625000000000000E-001 0.187500000000000E+000 0.000000000000000E+000
 0.143518518518519E+000 0.775462962962963E-001 0.000000000000000E+000
 0.156250000000000E+000 0.156250000000000E+000 0.000000000000000E+000
 0.729166666666667E-001 0.114583333333333E+000 0.000000000000000E+000
 0.125000000000000E+000 0.000000000000000E+000 0.000000000000000E+000
 0.250000000000000E+000 0.250000000000000E+000 0.000000000000000E+000
 0.375000000000000E+000 0.000000000000000E+000 0.000000000000000E+000
 0.187500000000000E+000 0.218750000000000E+000 0.000000000000000E+000
 0.312500000000000E+000 0.762453007518797E-001 0.000000000000000E+000
 0.270259392278489E+000 0.159169301283415E+000 0.000000000000000E+000
 0.365310977506407E+000 0.155367112827996E+000 0.000000000000000E+000
 0.312500000000000E+000 0.216265619131990E+000 0.000000000000000E+000
 0.500000000000000E+000 0.189389379011873E+000 0.000000000000000E+000
 0.426456487258648E+000 0.196919158251449E+000 0.000000000000000E+000
 0.451620395371675E+000 0.941243892751461E-001 0.000000000000000E+000
 0.381804756165356E+000 0.871724813114945E-001 0.000000000000000E+000
 0.437500000000000E+000 0.273708879364394E-001 0.000000000000000E+000
 0.000000000000000E+000 0.375000000000000E+000 0.000000000000000E+000
 0.625000000000000E-001 0.312500000000000E+000 0.000000000000000E+000
 0.250000000000000E+000 0.750000000000000E+000 0.000000000000000E+000
 0.158482142857143E+000 0.851934523809524E+000 0.000000000000000E+000
 0.210861885404568E+000 0.921875000000000E+000 0.000000000000000E+000
 0.136017278952732E+000 0.925863358051789E+000 0.000000000000000E+000
 0.625000000000000E-001 0.687500000000000E+000 0.000000000000000E+000
 0.250000000000000E+000 0.437500000000000E+000 0.000000000000000E+000
 0.247528011619582E+000 0.839830719156545E+000 0.000000000000000E+000
 0.312500000000000E+000 0.796669265575374E+000 0.000000000000000E+000
 0.419664368355990E+000 0.875000000000000E+000 0.000000000000000E+000
 0.313183356674252E+000 0.918387829019328E+000 0.000000000000000E+000
 0.312500000000000E+000 0.100000000000000E+001 0.000000000000000E+000
 0.380617553087688E+000 0.931527612480385E+000 0.000000000000000E+000
 0.187500000000000E+000 0.785936956899548E+000 0.000000000000000E+000
 0.350379273974835E+000 0.857317802397078E+000 0.000000000000000E+000
 0.228046514569416E+000 0.817347524546315E-001 0.000000000000000E+000
 0.187500000000000E+000 0.312500000000000E+000 0.000000000000000E+000
 0.625000000000000E-001 0.437500000000000E+000 0.000000000000000E+000
 0.197916666666667E+000 0.385416666666667E+000 0.000000000000000E+000
 0.375000000000000E+000 0.375000000000000E+000 0.000000000000000E+000
 0.750000000000000E+000 0.000000000000000E+000 0.000000000000000E+000
 0.625000000000000E-001 0.959280303030303E+000 0.000000000000000E+000
 0.234375000000000E+000 0.562500000000000E+000 0.000000000000000E+000
 0.187500000000000E+000 0.687500000000000E+000 0.000000000000000E+000
 0.193892045454545E+000 0.618607954545455E+000 0.000000000000000E+000
 0.375000000000000E+000 0.625000000000000E+000 0.000000000000000E+000
 0.283775504647110E+000 0.640801989544002E+000 0.000000000000000E+000
 0.281298714846257E+000 0.504888901855782E+000 0.000000000000000E+000
 0.331282779604339E+000 0.562500000000000E+000 0.000000000000000E+000
 0.338845441361880E+000 0.687500000000000E+000 0.000000000000000E+000
 0.500000000000000E+000 0.775815254846569E+000 0.000000000000000E+000
 0.625000000000000E-001 0.407196969696970E-001 0.000000000000000E+000
 0.328125000000000E+000 0.437500000000000E+000 0.000000000000000E+000
 0.284143518518519E+000 0.340856481481482E+000 0.000000000000000E+000
 0.312500000000000E+000 0.278356481481482E+000 0.000000000000000E+000
 0.625000000000000E+000 0.500000000000000E+000 0.000000000000000E+000
 0.410581328448014E+000 0.312500000000000E+000 0.000000000000000E+000
 0.543730092976870E+000 0.258404709955172E+000 0.000000000000000E+000
 0.625000000000000E+000 0.375000000000000E+000 0.000000000000000E+000
 0.500000000000000E+000 0.404784409423024E+000 0.000000000000000E+000
 0.590394028376448E+000 0.312500000000000E+000 0.000000000000000E+000
 0.467392923590959E+000 0.261422480241605E+000 0.000000000000000E+000
 0.508234229043035E+000 0.327522431406248E+000 0.000000000000000E+000
 0.625000000000000E+000 0.000000000000000E+000 0.000000000000000E+000
 0.537311919648379E+000 0.110523699730938E+000 0.000000000000000E+000
 0.750000000000000E+000 0.250000000000000E+000 0.000000000000000E+000
 0.593146640296986E+000 0.172723366619635E+000 0.000000000000000E+000
 0.623771215502605E+000 0.890722450407200E-001 0.000000000000000E+000
 0.687500000000000E+000 0.454068088573020E-001 0.000000000000000E+000
 0.793069391389776E+000 0.125000000000000E+000 0.000000000000000E+000
 0.695513657869308E+000 0.162768437982326E+000 0.000000000000000E+000
 0.687500000000000E+000 0.250000000000000E+000 0.000000000000000E+000
 0.875000000000000E+000 0.500000000000000E+000 0.000000000000000E+000
 0.727921748554044E+000 0.101601148842529E+000 0.000000000000000E+000
 0.759582972952604E+000 0.183381972603444E+000 0.000000000000000E+000
 0.875000000000000E+000 0.375000000000000E+000 0.000000000000000E+000
 0.718750000000000E+000 0.343750000000000E+000 0.000000000000000E+000
 0.697916666666667E+000 0.437500000000000E+000 0.000000000000000E+000
 0.750000000000000E+000 0.572048611111111E+000 0.000000000000000E+000
 0.787123226950355E+000 0.408133865248227E+000 0.000000000000000E+000
 0.804687500000000E+000 0.320312500000000E+000 0.000000000000000E+000
 0.700214460784314E+000 0.513965482026144E+000 0.000000000000000E+000
 0.783021635712153E+000 0.493366127722916E+000 0.000000000000000E+000
 0.625000000000000E+000 0.625000000000000E+000 0.000000000000000E+000
 0.848380638879200E+000 0.437500000000000E+000 0.000000000000000E+000
 0.562500000000000E+000 0.404604515401992E-001 0.000000000000000E+000
 0.875000000000000E+000 0.625000000000000E+000 0.000000000000000E+000
 0.750000000000000E+000 0.750000000000000E+000 0.000000000000000E+000
 0.697046765904942E+000 0.621060933265583E+000 0.000000000000000E+000
 0.200520833333333E+000 0.494791666666667E+000 0.000000000000000E+000
 0.429642360217793E+000 0.800955091165693E+000 0.000000000000000E+000
 0.453073336954457E+000 0.687500000000000E+000 0.000000000000000E+000
 0.548183885155829E+000 0.693587592964698E+000 0.000000000000000E+000
 0.750000000000000E+000 0.100000000000000E+001 0.000000000000000E+000
 0.573843760532799E+000 0.437500000000000E+000 0.000000000000000E+000
 0.500000000000000E+000 0.550126792242997E+000 0.000000000000000E+000
 0.511972906944656E+000 0.477455600833011E+000 0.000000000000000E+000
 0.437507615834863E+000 0.452402202857321E+000 0.000000000000000E+000
 0.546458141439317E+000 0.614345103225503E+000 0.000000000000000E+000
 0.571440414895569E+000 0.547357897962524E+000 0.000000000000000E+000
 0.450991397292447E+000 0.610087136082382E+000 0.000000000000000E+000
 0.875000000000000E+000 0.000000000000000E+000 0.000000000000000E+000
 0.100000000000000E+001 0.250000000000000E+000 0.000000000000000E+000
 0.100000000000000E+001 0.375000000000000E+000 0.000000000000000E+000
 0.687500000000000E+000 0.700324699898860E+000 0.000000000000000E+000
 0.812500000000000E+000 0.687500000000000E+000 0.000000000000000E+000
 0.804621866531165E+000 0.617121866531165E+000 0.000000000000000E+000
 0.825181931429427E+000 0.549770415540467E+000 0.000000000000000E+000
 0.100000000000000E+001 0.625000000000000E+000 0.000000000000000E+000
 0.100000000000000E+001 0.750000000000000E+000 0.000000000000000E+000
[...]
CELL_DATA          303
SCALARS tdens double 1
LOOKUP_TABLE default
 0.107613530661433E-004
 0.325573994516372E-004
 0.377274224495842E+000
 0.884991815016737E-005
 0.107224207792720E-004
 0.108604147234563E-004
 0.140632845370015E-004
 0.644460354570791E-004
 0.427650737142894E-002
 0.682885887100589E-005
 0.381854921267708E-004
 0.116215376731177E-004
 0.232233277546296E-004
 0.640895855375022E-001
 0.216252646188325E-004
 0.492646626834713E+000
 0.763804048796106E-005
 0.773406133608219E-005
 0.101536013057177E-004
 0.129436850738575E-002
 0.281850961200145E-004
 0.751746327806517E-005
 0.385679211086299E-001
 0.889178454752162E-005
 0.777926208476837E-005
 0.155776150605925E-004
 0.880891608201944E-005
 0.168889525055106E-001
 0.138512576990166E-004
 0.517849790650386E-004
 0.101412084366366E-004
 0.981629374493364E-005
 0.408540840199036E-002
 0.221634007895227E-004
 0.373626077147054E-004
 0.979338487292591E-005
 0.723145573417283E-005
 0.153752040360079E-004
 0.117652520976550E-004
 0.686066674160672E-005
 0.777049526510543E-005
 0.972453473621224E-005
 0.410870503433472E+000
 0.474069163663862E-002
 0.188850304634859E+000
 0.235074490994442E-004
 0.155576657230715E-004
 0.103421511083504E-004
 0.891594726508336E-005
 0.177449447490495E-004
 0.880631368839160E-005
 0.143125728076750E-004
 0.806777629210778E-005
 0.713379879098126E-005
 0.100879009844138E-004
 0.124150805143815E-004
 0.218506679439443E-004
 0.239924399102930E-004
 0.104554609437569E-003
 0.106557445706226E-003
 0.655493692574741E-004
 0.846653484620944E-005
 0.873069280572514E-004
 0.660953897474151E-004
 0.157854252686504E-004
 0.237103707681057E-004
 0.198089643870725E-004
 0.213090306998648E-002
 0.467815787041941E-004
 0.380469443123202E-004
 0.391719325857846E-004
 0.155472991586987E-004
 0.356299148997410E-004
 0.132164560383698E-003
 0.228441437769657E-004
 0.713908573011464E-005
 0.187036789434234E-004
 0.257872677699421E-004
 0.198180096122893E-004
 0.212183314193280E-004
 0.806260701227434E-005
 0.877229240258474E-005
 0.136338339407951E-004
 0.264722888711553E-004
 0.171078874558564E-004
 0.103013213226857E-004
 0.212319271344955E-001
 0.151127228695457E-004
 0.801399077973542E-005
 0.988941735556041E-005
 0.804657923344031E-005
 0.979910953771695E-005
 0.387238372671087E-001
 0.397236682893084E-002
 0.100731169050163E-003
 0.227172980696823E-004
 0.426195309535546E-004
 0.541513610096068E-004
 0.205008287726304E-004
 0.335466543700804E-004
 0.215188238690342E-004
 0.242657457020524E-004
 0.177197788024298E-004
 0.178956415804435E-004
 0.840382263488622E-004
 0.506802217507508E-004
 0.626174086938212E-004
 0.252605591517821E-004
 0.166954096284351E-004
 0.813573904392970E-001
 0.350244977938829E-001
 0.181032308746122E-004
 0.675510510279471E-001
 0.712957114416949E-001
 0.557879367901422E-001
 0.269739906902814E+000
 0.284565071833289E-004
 0.685503423511723E-005
 0.754598107778528E-005
 0.151019409876779E-001
 0.838324575581389E-005
 0.181720231144323E+000
 0.729824905676199E-001
 0.422616106868782E-002
 0.340573779863484E-002
 0.376173250714065E-002
 0.183798465451412E+000
 0.269899327828158E+000
 0.547540245294726E+000
 0.121214471059169E+000
 0.133839444921549E-001
 0.461155120615686E-001
 0.720802413414130E+000
 0.185868157807156E+001
 0.268831570612760E-001
 0.439471471128520E-002
 0.447671116469246E-002
 0.104424498039708E-003
 0.772772014333831E-005
 0.722397063654698E-005
 0.305526109799983E-001
 0.499924738911483E+000
 0.251901328517276E-001
 0.312569058366705E+001
 0.143685401173703E-002
 0.165482803308239E-001
 0.118050899576111E-002
 0.265792717311660E-003
 0.731473428591336E-002
 0.136817337589899E-003
 0.836493698882585E-004
 0.944142284373414E-003
 0.818736089352642E+001
 0.906963024025404E-002
 0.470303393188847E-001
 0.120331163703772E+000
 0.142167122932568E-001
 0.109413573124597E-002
 0.127122357847252E-002
 0.213616823498260E-002
 0.944186328848581E-003
 0.234004357119827E-002
 0.109763310640786E-004
 0.294178438870367E-004
 0.232086386214498E-004
 0.218514569922997E-004
 0.607610057613326E-004
 0.567101111207357E-004
 0.226678612994190E-004
 0.101146836431612E-003
 0.127377064728363E-004
 0.379505321098529E+000
 0.217790414663130E-004
 0.785860609757374E-005
 0.771289454181302E-004
 0.181892611726964E-004
 0.234976775147439E-004
 0.503444926445381E-004
 0.448685773536689E-002
 0.306511282138115E+001
 0.984010526359965E-001
 0.151330690118091E-004
 0.189057716244838E-004
 0.185241901613747E-004
 0.732127213792570E-004
 0.387422310856158E-002
 0.614120333586442E-001
 0.433382262826746E+000
 0.706572306043765E-005
 0.147798104713192E-004
 0.261949027121399E+000
 0.244714312160036E+000
 0.628188703143477E-001
 0.664518349728772E-002
 0.720481996814797E-001
 0.419053792518974E-001
 0.665340396603923E-001
 0.107212949188147E-001
 0.241863310540550E+000
 0.797174512639248E-001
 0.323966752086677E-001
 0.163245241065448E-004
 0.290279210512089E-003
 0.275845863948599E-002
 0.508390770006458E-002
 0.200200050083608E-004
 0.198353630286969E-004
 0.297443277073983E-002
 0.362297338180561E-002
 0.131088890057797E+001
 0.514516676594829E+000
 0.558025525187689E+000
 0.831900409149864E-005
 0.148135799145624E-001
 0.389921483421304E-002
 0.384350813320994E-004
 0.359196923517833E-003
 0.989356986545121E+000
 0.262548984587235E-003
 0.762883071684107E-003
 0.452388531392130E-002
 0.239010719046667E-004
 0.468288936184067E-001
 0.594305407105267E-002
 0.108435914968307E+002
 0.346259485376522E+001
 0.147663479992841E-002
 0.794431399266953E-002
 0.467812199787505E-002
 0.827931666436322E-001
 0.487238381511338E-001
 0.277695840645362E-002
 0.190115332246567E+001
 0.397799799676822E-002
 0.759205652075276E+000
 0.195909643350330E+001
 0.420523971332466E+001
 0.150779980207938E-004
 0.140325978328252E-004
 0.211802570523064E-001
 0.889917804080787E-005
 0.410950452167789E+000
 0.980789215282906E-001
 0.359018544976213E-001
 0.617527090335613E-001
 0.250342884655445E-002
 0.316055262416144E-001
 0.799974604101423E-005
 0.969078405445605E-005
 0.125948486148299E-004
 0.911239150954753E-005
 0.104708504383954E-004
 0.930208826256355E-005
 0.746181498852321E-005
 0.740996259201591E-005
 0.801722103442670E-005
 0.114959908601734E-004
 0.774037596148034E-005
 0.856397264612211E-005
 0.519875699090610E-004
 0.314679335883601E-004
 0.208080722953908E-004
 0.272224088032804E-004
 0.217707984031844E-003
 0.443970076860096E-004
 0.821371026543674E-004
 0.187456876504256E-004
 0.126565942568729E-003
 0.204010367675385E-004
 0.499350719057447E-004
 0.905191844618908E-005
 0.150967532265118E-004
 0.234578685664012E-004
 0.200625357343016E-004
 0.319049033329716E-004
 0.215320435931362E-004
 0.186213695670028E-004
 0.157035097449474E-004
 0.485069188003232E-004
 0.109873554980372E-004
 0.887700044810307E-005
 0.148201784517714E-004
 0.684843016495801E-005
 0.708197004442917E-005
 0.255684786421826E-004
 0.122770776207108E-004
 0.889474887041855E-005
 0.891525059791755E-005
 0.103424549119878E-004
 0.936830816888918E-005
 0.197986047226652E-004
 0.105560383961770E-004
 0.921326741075519E-005
 0.129125124020902E-004
 0.140979287590507E-004
 0.776913316566488E-005
 0.113744348001489E-004
 0.898424464476254E-005
 0.110459039834689E-004
 0.806486085900365E-005
 0.864497163245040E-005
 0.720075447783931E-005
 0.715524224733031E-005
