# vtk DataFile Version 3.0
Unstructured Grid
ASCII
DATASET UNSTRUCTURED_GRID
FIELD FieldData 1
TIME 1 1 float
  0.375833E+02
POINTS          169 double
 0.000000000000000E+000 0.000000000000000E+000 0.000000000000000E+000
 0.100000000000000E+001 0.000000000000000E+000 0.000000000000000E+000
 0.100000000000000E+001 0.100000000000000E+001 0.000000000000000E+000
 0.000000000000000E+000 0.100000000000000E+001 0.000000000000000E+000
 0.125000000000000E+000 0.250000000000000E+000 0.000000000000000E+000
 0.375000000000000E+000 0.250000000000000E+000 0.000000000000000E+000
 0.375000000000000E+000 0.750000000000000E+000 0.000000000000000E+000
 0.125000000000000E+000 0.750000000000000E+000 0.000000000000000E+000
 0.625000000000000E+000 0.250000000000000E+000 0.000000000000000E+000
 0.875000000000000E+000 0.250000000000000E+000 0.000000000000000E+000
 0.875000000000000E+000 0.750000000000000E+000 0.000000000000000E+000
 0.625000000000000E+000 0.750000000000000E+000 0.000000000000000E+000
 0.100000000000000E+001 0.500000000000000E+000 0.000000000000000E+000
 0.000000000000000E+000 0.500000000000000E+000 0.000000000000000E+000
 0.500000000000000E+000 0.000000000000000E+000 0.000000000000000E+000
 0.125000000000000E+000 0.500000000000000E+000 0.000000000000000E+000
 0.000000000000000E+000 0.750000000000000E+000 0.000000000000000E+000
 0.000000000000000E+000 0.250000000000000E+000 0.000000000000000E+000
 0.000000000000000E+000 0.875000000000000E+000 0.000000000000000E+000
 0.000000000000000E+000 0.125000000000000E+000 0.000000000000000E+000
 0.625000000000000E-001 0.812500000000000E+000 0.000000000000000E+000
 0.125000000000000E+000 0.375000000000000E+000 0.000000000000000E+000
 0.125000000000000E+000 0.625000000000000E+000 0.000000000000000E+000
 0.500000000000000E+000 0.100000000000000E+001 0.000000000000000E+000
 0.250000000000000E+000 0.100000000000000E+001 0.000000000000000E+000
 0.125000000000000E+000 0.100000000000000E+001 0.000000000000000E+000
 0.729166666666667E-001 0.885416666666667E+000 0.000000000000000E+000
 0.000000000000000E+000 0.625000000000000E+000 0.000000000000000E+000
 0.625000000000000E-001 0.562500000000000E+000 0.000000000000000E+000
 0.375000000000000E+000 0.500000000000000E+000 0.000000000000000E+000
 0.375000000000000E+000 0.100000000000000E+001 0.000000000000000E+000
 0.250000000000000E+000 0.000000000000000E+000 0.000000000000000E+000
 0.625000000000000E-001 0.187500000000000E+000 0.000000000000000E+000
 0.143518518518519E+000 0.775462962962963E-001 0.000000000000000E+000
 0.156250000000000E+000 0.156250000000000E+000 0.000000000000000E+000
 0.729166666666667E-001 0.114583333333333E+000 0.000000000000000E+000
 0.125000000000000E+000 0.000000000000000E+000 0.000000000000000E+000
 0.250000000000000E+000 0.250000000000000E+000 0.000000000000000E+000
 0.375000000000000E+000 0.000000000000000E+000 0.000000000000000E+000
 0.187500000000000E+000 0.218750000000000E+000 0.000000000000000E+000
 0.312500000000000E+000 0.762453007518797E-001 0.000000000000000E+000
 0.270259392278489E+000 0.159169301283415E+000 0.000000000000000E+000
 0.365310977506407E+000 0.155367112827996E+000 0.000000000000000E+000
 0.312500000000000E+000 0.216265619131990E+000 0.000000000000000E+000
 0.500000000000000E+000 0.189389379011873E+000 0.000000000000000E+000
 0.426456487258648E+000 0.196919158251449E+000 0.000000000000000E+000
 0.451620395371675E+000 0.941243892751461E-001 0.000000000000000E+000
 0.381804756165356E+000 0.871724813114945E-001 0.000000000000000E+000
 0.437500000000000E+000 0.273708879364394E-001 0.000000000000000E+000
 0.000000000000000E+000 0.375000000000000E+000 0.000000000000000E+000
 0.625000000000000E-001 0.312500000000000E+000 0.000000000000000E+000
 0.250000000000000E+000 0.750000000000000E+000 0.000000000000000E+000
 0.158482142857143E+000 0.851934523809524E+000 0.000000000000000E+000
 0.210861885404568E+000 0.921875000000000E+000 0.000000000000000E+000
 0.136017278952732E+000 0.925863358051789E+000 0.000000000000000E+000
 0.625000000000000E-001 0.687500000000000E+000 0.000000000000000E+000
 0.250000000000000E+000 0.437500000000000E+000 0.000000000000000E+000
 0.247528011619582E+000 0.839830719156545E+000 0.000000000000000E+000
 0.312500000000000E+000 0.796669265575374E+000 0.000000000000000E+000
 0.419664368355990E+000 0.875000000000000E+000 0.000000000000000E+000
 0.313183356674252E+000 0.918387829019328E+000 0.000000000000000E+000
 0.312500000000000E+000 0.100000000000000E+001 0.000000000000000E+000
 0.380617553087688E+000 0.931527612480385E+000 0.000000000000000E+000
 0.187500000000000E+000 0.785936956899548E+000 0.000000000000000E+000
 0.350379273974835E+000 0.857317802397078E+000 0.000000000000000E+000
 0.228046514569416E+000 0.817347524546315E-001 0.000000000000000E+000
 0.187500000000000E+000 0.312500000000000E+000 0.000000000000000E+000
 0.625000000000000E-001 0.437500000000000E+000 0.000000000000000E+000
 0.197916666666667E+000 0.385416666666667E+000 0.000000000000000E+000
 0.375000000000000E+000 0.375000000000000E+000 0.000000000000000E+000
 0.750000000000000E+000 0.000000000000000E+000 0.000000000000000E+000
 0.625000000000000E-001 0.959280303030303E+000 0.000000000000000E+000
 0.234375000000000E+000 0.562500000000000E+000 0.000000000000000E+000
 0.187500000000000E+000 0.687500000000000E+000 0.000000000000000E+000
 0.193892045454545E+000 0.618607954545455E+000 0.000000000000000E+000
 0.375000000000000E+000 0.625000000000000E+000 0.000000000000000E+000
 0.283775504647110E+000 0.640801989544002E+000 0.000000000000000E+000
 0.281298714846257E+000 0.504888901855782E+000 0.000000000000000E+000
 0.331282779604339E+000 0.562500000000000E+000 0.000000000000000E+000
 0.338845441361880E+000 0.687500000000000E+000 0.000000000000000E+000
 0.500000000000000E+000 0.775815254846569E+000 0.000000000000000E+000
 0.625000000000000E-001 0.407196969696970E-001 0.000000000000000E+000
 0.328125000000000E+000 0.437500000000000E+000 0.000000000000000E+000
 0.284143518518519E+000 0.340856481481482E+000 0.000000000000000E+000
 0.312500000000000E+000 0.278356481481482E+000 0.000000000000000E+000
 0.625000000000000E+000 0.500000000000000E+000 0.000000000000000E+000
 0.410581328448014E+000 0.312500000000000E+000 0.000000000000000E+000
 0.543730092976870E+000 0.258404709955172E+000 0.000000000000000E+000
 0.625000000000000E+000 0.375000000000000E+000 0.000000000000000E+000
 0.500000000000000E+000 0.404784409423024E+000 0.000000000000000E+000
 0.590394028376448E+000 0.312500000000000E+000 0.000000000000000E+000
 0.467392923590959E+000 0.261422480241605E+000 0.000000000000000E+000
 0.508234229043035E+000 0.327522431406248E+000 0.000000000000000E+000
 0.625000000000000E+000 0.000000000000000E+000 0.000000000000000E+000
 0.537311919648379E+000 0.110523699730938E+000 0.000000000000000E+000
 0.750000000000000E+000 0.250000000000000E+000 0.000000000000000E+000
 0.593146640296986E+000 0.172723366619635E+000 0.000000000000000E+000
 0.623771215502605E+000 0.890722450407200E-001 0.000000000000000E+000
 0.687500000000000E+000 0.454068088573020E-001 0.000000000000000E+000
 0.793069391389776E+000 0.125000000000000E+000 0.000000000000000E+000
 0.695513657869308E+000 0.162768437982326E+000 0.000000000000000E+000
 0.687500000000000E+000 0.250000000000000E+000 0.000000000000000E+000
 0.875000000000000E+000 0.500000000000000E+000 0.000000000000000E+000
 0.727921748554044E+000 0.101601148842529E+000 0.000000000000000E+000
 0.759582972952604E+000 0.183381972603444E+000 0.000000000000000E+000
 0.875000000000000E+000 0.375000000000000E+000 0.000000000000000E+000
 0.718750000000000E+000 0.343750000000000E+000 0.000000000000000E+000
 0.697916666666667E+000 0.437500000000000E+000 0.000000000000000E+000
 0.750000000000000E+000 0.572048611111111E+000 0.000000000000000E+000
 0.787123226950355E+000 0.408133865248227E+000 0.000000000000000E+000
 0.804687500000000E+000 0.320312500000000E+000 0.000000000000000E+000
 0.700214460784314E+000 0.513965482026144E+000 0.000000000000000E+000
 0.783021635712153E+000 0.493366127722916E+000 0.000000000000000E+000
 0.625000000000000E+000 0.625000000000000E+000 0.000000000000000E+000
 0.848380638879200E+000 0.437500000000000E+000 0.000000000000000E+000
 0.562500000000000E+000 0.404604515401992E-001 0.000000000000000E+000
 0.875000000000000E+000 0.625000000000000E+000 0.000000000000000E+000
 0.750000000000000E+000 0.750000000000000E+000 0.000000000000000E+000
 0.697046765904942E+000 0.621060933265583E+000 0.000000000000000E+000
 0.200520833333333E+000 0.494791666666667E+000 0.000000000000000E+000
 0.429642360217793E+000 0.800955091165693E+000 0.000000000000000E+000
 0.453073336954457E+000 0.687500000000000E+000 0.000000000000000E+000
 0.548183885155829E+000 0.693587592964698E+000 0.000000000000000E+000
 0.750000000000000E+000 0.100000000000000E+001 0.000000000000000E+000
 0.573843760532799E+000 0.437500000000000E+000 0.000000000000000E+000
 0.500000000000000E+000 0.550126792242997E+000 0.000000000000000E+000
 0.511972906944656E+000 0.477455600833011E+000 0.000000000000000E+000
 0.437507615834863E+000 0.452402202857321E+000 0.000000000000000E+000
 0.546458141439317E+000 0.614345103225503E+000 0.000000000000000E+000
 0.571440414895569E+000 0.547357897962524E+000 0.000000000000000E+000
 0.450991397292447E+000 0.610087136082382E+000 0.000000000000000E+000
 0.875000000000000E+000 0.000000000000000E+000 0.000000000000000E+000
 0.100000000000000E+001 0.250000000000000E+000 0.000000000000000E+000
 0.100000000000000E+001 0.375000000000000E+000 0.000000000000000E+000
 0.687500000000000E+000 0.700324699898860E+000 0.000000000000000E+000
 0.812500000000000E+000 0.687500000000000E+000 0.000000000000000E+000
 0.804621866531165E+000 0.617121866531165E+000 0.000000000000000E+000
 0.825181931429427E+000 0.549770415540467E+000 0.000000000000000E+000
 0.100000000000000E+001 0.625000000000000E+000 0.000000000000000E+000
 0.100000000000000E+001 0.750000000000000E+000 0.000000000000000E+000
[...]
CELL_DATA          303
SCALARS tdens double 1
LOOKUP_TABLE default
 0.102916120438912E-010
 0.319325449209463E-010
 0.392172586998972E+000
 0.849027999394953E-011
 0.102510290575971E-010
 0.103860997969463E-010
 0.134761395186756E-010
 0.644107143296347E-010
 0.268732053730746E-002
 0.651616736842553E-011
 0.376576768023521E-010
 0.111128091143197E-010
 0.223881672880911E-010
 0.166205115430043E-001
 0.209232844487087E-010
 0.174804724104104E-001
 0.732469121829831E-011
 0.738200991667554E-011
 0.100275223954228E-010
 0.157130846328914E-008
 0.271238152643165E-010
 0.721648947308325E-011
 0.586227545181454E-001
 0.849176110745061E-011
 0.747662957400206E-011
 0.149153832772801E-010
 0.841235333853320E-011
 0.199499662711197E-001
 0.134773158646649E-010
 0.497741202997605E-010
 0.968926187319031E-011
 0.938903713834558E-011
 0.390351856620197E-002
 0.212202619064319E-010
 0.367831660731953E-010
 0.935800749156503E-011
 0.690022551667614E-011
 0.147214618904229E-010
 0.112515794449407E-010
 0.654341187243688E-011
 0.745765714667174E-011
 0.959761708352802E-011
 0.130080780772751E+001
 0.834352743835596E-008
 0.160092723226171E+000
 0.227974061625074E-010
 0.149108943558843E-010
 0.988320460025107E-011
 0.851526832065104E-011
 0.170278909913423E-010
 0.840966613379879E-011
 0.137108575037711E-010
 0.770144392414575E-011
 0.680624302974802E-011
 0.963931274228594E-011
 0.118689155441380E-010
 0.211453492006327E-010
 0.229367063347681E-010
 0.108676103050290E-009
 0.108842234185049E-009
 0.660251747806740E-010
 0.808350352942575E-011
 0.849671150895712E-010
 0.660299833048676E-010
 0.151541090642499E-010
 0.228619158217662E-010
 0.191193185809228E-010
 0.296459158634171E-008
 0.454958745911735E-010
 0.368914396159858E-010
 0.387224474064309E-010
 0.149079967935203E-010
 0.350432243888849E-010
 0.140258239951382E-009
 0.220984423312825E-010
 0.681153773706474E-011
 0.180120671353359E-010
 0.250719331916557E-010
 0.191309989481091E-010
 0.205199332781971E-010
 0.769407198998664E-011
 0.841929955702312E-011
 0.132498295816062E-010
 0.254316208483779E-010
 0.164117232539051E-010
 0.984459371891632E-011
 0.899754266534244E-002
 0.144998770857136E-010
 0.765084105264543E-011
 0.945025887224959E-011
 0.767754203245029E-011
 0.937386056922701E-011
 0.273474171955236E-001
 0.408490592223023E-002
 0.101608162445342E-009
 0.218700874971134E-010
 0.411449383359276E-010
 0.540900903935229E-010
 0.198076146493176E-010
 0.324348355709204E-010
 0.207837156744822E-010
 0.235525481584137E-010
 0.170491842198648E-010
 0.172253281356733E-010
 0.819495174720713E-010
 0.488470178403168E-010
 0.620948927260676E-010
 0.245201316616489E-010
 0.159766520052300E-010
 0.106770305872416E+000
 0.360219037267178E-001
 0.173975755507815E-010
 0.139969934328776E-001
 0.707027695502804E-001
 0.735252688989843E-001
 0.276428140355183E+000
 0.276952918470757E-010
 0.654006029932539E-011
 0.724022407085070E-011
 0.724043097378595E-007
 0.800462829890697E-011
 0.205013191116269E+000
 0.689362938492655E-001
 0.372294430141928E-002
 0.347736949064715E-002
 0.381554551139160E-008
 0.176457180047146E-001
 0.692578533058483E-003
 0.107460165167446E+000
 0.125534097918577E+000
 0.309053668188122E-007
 0.957815226233480E-002
 0.222154912299049E-001
 0.357518001043325E+001
 0.459928850378494E-001
 0.332235450013559E-002
 0.648789807885182E-008
 0.106366883694088E-009
 0.737550773851037E-011
 0.689262777496855E-011
 0.380461270375757E-006
 0.118327879466028E+001
 0.195645542619230E-002
 0.455123233333487E+001
 0.586252905653126E-002
 0.176458075452498E-001
 0.139278685971174E-008
 0.286985862488910E-009
 0.140267302537231E-007
 0.144124951485607E-009
 0.854646863071345E-010
 0.125211810842781E-008
 0.115286324991577E+002
 0.862087720486216E-002
 0.496140718872710E-007
 0.216934848806980E-004
 0.662755241110339E-007
 0.134867625166071E-008
 0.173195465749517E-008
 0.309082663809946E-008
 0.115667750614038E-008
 0.297606584643922E-008
 0.104899377305053E-010
 0.284723827663619E-010
 0.225081754515217E-010
 0.211355504601279E-010
 0.603493805280036E-010
 0.558581928060376E-010
 0.219300251845095E-010
 0.104481660139969E-009
 0.121837962996447E-010
 0.403573873358338E+000
 0.209420075582886E-010
 0.750101029863862E-011
 0.748320978955934E-010
 0.174648399694889E-010
 0.225100903692809E-010
 0.488082546417649E-010
 0.431781376319400E-002
 0.499582637982430E+001
 0.108901383140784E+000
 0.144981956045117E-010
 0.180841916767515E-010
 0.177214986799784E-010
 0.804293212983422E-010
 0.556467303722170E-008
 0.880401346446471E-001
 0.366995564536400E+000
 0.675217235782513E-011
 0.144384162371883E-010
 0.980463550702723E+000
 0.988738645284810E+000
 0.690455934290092E-001
 0.943563078356953E-007
 0.300589984018237E-005
 0.429897471116701E-001
 0.547273928922083E-001
 0.275716199816606E-007
 0.255405407907044E-001
 0.155296477708704E+000
 0.188965225756237E-001
 0.156427489852794E-010
 0.315489157431255E-009
 0.165451798622225E-001
 0.351971341252302E-007
 0.193153097244973E-010
 0.191211005272343E-010
 0.422955551090721E-008
 0.297810412045409E-002
 0.427269674413267E+001
 0.156652116198446E+001
 0.573622097716203E-004
 0.812904716710834E-011
 0.150415171127453E-001
 0.373075458730859E-002
 0.377691834633026E-010
 0.395798187703998E-009
 0.806362484548455E-004
 0.283391513812513E-009
 0.824627479884030E-009
 0.653577414569818E-008
 0.228881498475655E-010
 0.521023152651819E-001
 0.638772227264885E-008
 0.154159505012091E+002
 0.655576927590369E+001
 0.179129042442699E-008
 0.949683643565928E-008
 0.502086258173765E-008
 0.109648706862451E-005
 0.518215352095873E-007
 0.364034792647393E-008
 0.457358745256687E-003
 0.405906028492318E-008
 0.631479718821648E-001
 0.312615438250047E+001
 0.826398274160798E+001
 0.144519734936349E-010
 0.134192527709310E-010
 0.284673762259581E-001
 0.853979841976894E-011
 0.352781011286638E+000
 0.151995649634007E+000
 0.358164089429490E-001
 0.119328514200089E+000
 0.257281567206811E-002
 0.939221900107054E-002
 0.763523022933826E-011
 0.925883366293564E-011
 0.120546423128375E-010
 0.870610950613499E-011
 0.100057249433947E-010
 0.888394932199871E-011
 0.712060255169452E-011
 0.707122601515274E-011
 0.765075524110969E-011
 0.110240676024022E-010
 0.742088608402241E-011
 0.826295206022500E-011
 0.519260262552244E-010
 0.306577624198135E-010
 0.201118611754068E-010
 0.265164963746351E-010
 0.232448330470167E-009
 0.433141438030632E-010
 0.805553413828794E-010
 0.180506521172968E-010
 0.128713583626381E-009
 0.196977704903372E-010
 0.487766357853972E-010
 0.865261153091034E-011
 0.144730644523419E-010
 0.227315411995585E-010
 0.193697095381234E-010
 0.311923604615475E-010
 0.207733507805279E-010
 0.178895068975170E-010
 0.150757787207719E-010
 0.467955818042891E-010
 0.105066732250404E-010
 0.851549558926816E-011
 0.144719125272337E-010
 0.653276192162549E-011
 0.677910398777255E-011
 0.245603710234568E-010
 0.117359069928403E-010
 0.849675843597696E-011
 0.851526947602470E-011
 0.988632254975745E-011
 0.895481216747987E-011
 0.189534561203034E-010
 0.100930321938510E-010
 0.880251710095763E-011
 0.123795157748625E-010
 0.134884621909135E-010
 0.741680235374490E-011
 0.109177638371673E-010
 0.858619529119222E-011
 0.105651511332832E-010
 0.770120803991465E-011
 0.825778402855927E-011
 0.687139834263172E-011
 0.682761439261544E-011
