# vtk DataFile Version 3.0
Unstructured Grid
ASCII
DATASET UNSTRUCTURED_GRID
FIELD FieldData 1
TIME 1 1 float
  0.150000E+01
POINTS          169 double
 0.000000000000000E+000 0.000000000000000E+000 0.000000000000000E+000
 0.100000000000000E+001 0.000000000000000E+000 0.000000000000000E+000
 0.100000000000000E+001 0.100000000000000E+001 0.000000000000000E+000
 0.000000000000000E+000 0.100000000000000E+001 0.000000000000000E+000
 0.125000000000000E+000 0.250000000000000E+000 0.000000000000000E+000
 0.375000000000000E+000 0.250000000000000E+000 0.000000000000000E+000
 0.375000000000000E+000 0.750000000000000E+000 0.000000000000000E+000
 0.125000000000000E+000 0.750000000000000E+000 0.000000000000000E+000
 0.625000000000000E+000 0.250000000000000E+000 0.000000000000000E+000
 0.875000000000000E+000 0.250000000000000E+000 0.000000000000000E+000
 0.875000000000000E+000 0.750000000000000E+000 0.000000000000000E+000
 0.625000000000000E+000 0.750000000000000E+000 0.000000000000000E+000
 0.100000000000000E+001 0.500000000000000E+000 0.000000000000000E+000
 0.000000000000000E+000 0.500000000000000E+000 0.000000000000000E+000
 0.500000000000000E+000 0.000000000000000E+000 0.000000000000000E+000
 0.125000000000000E+000 0.500000000000000E+000 0.000000000000000E+000
 0.000000000000000E+000 0.750000000000000E+000 0.000000000000000E+000
 0.000000000000000E+000 0.250000000000000E+000 0.000000000000000E+000
 0.000000000000000E+000 0.875000000000000E+000 0.000000000000000E+000
 0.000000000000000E+000 0.125000000000000E+000 0.000000000000000E+000
 0.625000000000000E-001 0.812500000000000E+000 0.000000000000000E+000
 0.125000000000000E+000 0.375000000000000E+000 0.000000000000000E+000
 0.125000000000000E+000 0.625000000000000E+000 0.000000000000000E+000
 0.500000000000000E+000 0.100000000000000E+001 0.000000000000000E+000
 0.250000000000000E+000 0.100000000000000E+001 0.000000000000000E+000
 0.125000000000000E+000 0.100000000000000E+001 0.000000000000000E+000
 0.729166666666667E-001 0.885416666666667E+000 0.000000000000000E+000
 0.000000000000000E+000 0.625000000000000E+000 0.000000000000000E+000
 0.625000000000000E-001 0.562500000000000E+000 0.000000000000000E+000
 0.375000000000000E+000 0.500000000000000E+000 0.000000000000000E+000
 0.375000000000000E+000 0.100000000000000E+001 0.000000000000000E+000
 0.250000000000000E+000 0.000000000000000E+000 0.000000000000000E+000
 0.625000000000000E-001 0.187500000000000E+000 0.000000000000000E+000
 0.143518518518519E+000 0.775462962962963E-001 0.000000000000000E+000
 0.156250000000000E+000 0.156250000000000E+000 0.000000000000000E+000
 0.729166666666667E-001 0.114583333333333E+000 0.000000000000000E+000
 0.125000000000000E+000 0.000000000000000E+000 0.000000000000000E+000
 0.250000000000000E+000 0.250000000000000E+000 0.000000000000000E+000
 0.375000000000000E+000 0.000000000000000E+000 0.000000000000000E+000
 0.187500000000000E+000 0.218750000000000E+000 0.000000000000000E+000
 0.312500000000000E+000 0.762453007518797E-001 0.000000000000000E+000
 0.270259392278489E+000 0.159169301283415E+000 0.000000000000000E+000
 0.365310977506407E+000 0.155367112827996E+000 0.000000000000000E+000
 0.312500000000000E+000 0.216265619131990E+000 0.000000000000000E+000
 0.500000000000000E+000 0.189389379011873E+000 0.000000000000000E+000
 0.426456487258648E+000 0.196919158251449E+000 0.000000000000000E+000
 0.451620395371675E+000 0.941243892751461E-001 0.000000000000000E+000
 0.381804756165356E+000 0.871724813114945E-001 0.000000000000000E+000
 0.437500000000000E+000 0.273708879364394E-001 0.000000000000000E+000
 0.000000000000000E+000 0.375000000000000E+000 0.000000000000000E+000
 0.625000000000000E-001 0.312500000000000E+000 0.000000000000000E+000
 0.250000000000000E+000 0.750000000000000E+000 0.000000000000000E+000
 0.158482142857143E+000 0.851934523809524E+000 0.000000000000000E+000
 0.210861885404568E+000 0.921875000000000E+000 0.000000000000000E+000
 0.136017278952732E+000 0.925863358051789E+000 0.000000000000000E+000
 0.625000000000000E-001 0.687500000000000E+000 0.000000000000000E+000
 0.250000000000000E+000 0.437500000000000E+000 0.000000000000000E+000
 0.247528011619582E+000 0.839830719156545E+000 0.000000000000000E+000
 0.312500000000000E+000 0.796669265575374E+000 0.000000000000000E+000
 0.419664368355990E+000 0.875000000000000E+000 0.000000000000000E+000
 0.313183356674252E+000 0.918387829019328E+000 0.000000000000000E+000
 0.312500000000000E+000 0.100000000000000E+001 0.000000000000000E+000
 0.380617553087688E+000 0.931527612480385E+000 0.000000000000000E+000
 0.187500000000000E+000 0.785936956899548E+000 0.000000000000000E+000
 0.350379273974835E+000 0.857317802397078E+000 0.000000000000000E+000
 0.228046514569416E+000 0.817347524546315E-001 0.000000000000000E+000
 0.187500000000000E+000 0.312500000000000E+000 0.000000000000000E+000
 0.625000000000000E-001 0.437500000000000E+000 0.000000000000000E+000
 0.197916666666667E+000 0.385416666666667E+000 0.000000000000000E+000
 0.375000000000000E+000 0.375000000000000E+000 0.000000000000000E+000
 0.750000000000000E+000 0.000000000000000E+000 0.000000000000000E+000
 0.625000000000000E-001 0.959280303030303E+000 0.000000000000000E+000
 0.234375000000000E+000 0.562500000000000E+000 0.000000000000000E+000
 0.187500000000000E+000 0.687500000000000E+000 0.000000000000000E+000
 0.193892045454545E+000 0.618607954545455E+000 0.000000000000000E+000
 0.375000000000000E+000 0.625000000000000E+000 0.000000000000000E+000
 0.283775504647110E+000 0.640801989544002E+000 0.000000000000000E+000
 0.281298714846257E+000 0.504888901855782E+000 0.000000000000000E+000
 0.331282779604339E+000 0.562500000000000E+000 0.000000000000000E+000
 0.338845441361880E+000 0.687500000000000E+000 0.000000000000000E+000
 0.500000000000000E+000 0.775815254846569E+000 0.000000000000000E+000
 0.625000000000000E-001 0.407196969696970E-001 0.000000000000000E+000
 0.328125000000000E+000 0.437500000000000E+000 0.000000000000000E+000
 0.284143518518519E+000 0.340856481481482E+000 0.000000000000000E+000
 0.312500000000000E+000 0.278356481481482E+000 0.000000000000000E+000
 0.625000000000000E+000 0.500000000000000E+000 0.000000000000000E+000
 0.410581328448014E+000 0.312500000000000E+000 0.000000000000000E+000
 0.543730092976870E+000 0.258404709955172E+000 0.000000000000000E+000
 0.625000000000000E+000 0.375000000000000E+000 0.000000000000000E+000
 0.500000000000000E+000 0.404784409423024E+000 0.000000000000000E+000
 0.590394028376448E+000 0.312500000000000E+000 0.000000000000000E+000
 0.467392923590959E+000 0.261422480241605E+000 0.000000000000000E+000
 0.508234229043035E+000 0.327522431406248E+000 0.000000000000000E+000
 0.625000000000000E+000 0.000000000000000E+000 0.000000000000000E+000
 0.537311919648379E+000 0.110523699730938E+000 0.000000000000000E+000
 0.750000000000000E+000 0.250000000000000E+000 0.000000000000000E+000
 0.593146640296986E+000 0.172723366619635E+000 0.000000000000000E+000
 0.623771215502605E+000 0.890722450407200E-001 0.000000000000000E+000
 0.687500000000000E+000 0.454068088573020E-001 0.000000000000000E+000
 0.793069391389776E+000 0.125000000000000E+000 0.000000000000000E+000
 0.695513657869308E+000 0.162768437982326E+000 0.000000000000000E+000
 0.687500000000000E+000 0.250000000000000E+000 0.000000000000000E+000
 0.875000000000000E+000 0.500000000000000E+000 0.000000000000000E+000
 0.727921748554044E+000 0.101601148842529E+000 0.000000000000000E+000
 0.759582972952604E+000 0.183381972603444E+000 0.000000000000000E+000
 0.875000000000000E+000 0.375000000000000E+000 0.000000000000000E+000
 0.718750000000000E+000 0.343750000000000E+000 0.000000000000000E+000
 0.697916666666667E+000 0.437500000000000E+000 0.000000000000000E+000
 0.750000000000000E+000 0.572048611111111E+000 0.000000000000000E+000
 0.787123226950355E+000 0.408133865248227E+000 0.000000000000000E+000
 0.804687500000000E+000 0.320312500000000E+000 0.000000000000000E+000
 0.700214460784314E+000 0.513965482026144E+000 0.000000000000000E+000
 0.783021635712153E+000 0.493366127722916E+000 0.000000000000000E+000
 0.625000000000000E+000 0.625000000000000E+000 0.000000000000000E+000
 0.848380638879200E+000 0.437500000000000E+000 0.000000000000000E+000
 0.562500000000000E+000 0.404604515401992E-001 0.000000000000000E+000
 0.875000000000000E+000 0.625000000000000E+000 0.000000000000000E+000
 0.750000000000000E+000 0.750000000000000E+000 0.000000000000000E+000
 0.697046765904942E+000 0.621060933265583E+000 0.000000000000000E+000
 0.200520833333333E+000 0.494791666666667E+000 0.000000000000000E+000
 0.429642360217793E+000 0.800955091165693E+000 0.000000000000000E+000
 0.453073336954457E+000 0.687500000000000E+000 0.000000000000000E+000
 0.548183885155829E+000 0.693587592964698E+000 0.000000000000000E+000
 0.750000000000000E+000 0.100000000000000E+001 0.000000000000000E+000
 0.573843760532799E+000 0.437500000000000E+000 0.000000000000000E+000
 0.500000000000000E+000 0.550126792242997E+000 0.000000000000000E+000
 0.511972906944656E+000 0.477455600833011E+000 0.000000000000000E+000
 0.437507615834863E+000 0.452402202857321E+000 0.000000000000000E+000
 0.546458141439317E+000 0.614345103225503E+000 0.000000000000000E+000
 0.571440414895569E+000 0.547357897962524E+000 0.000000000000000E+000
 0.450991397292447E+000 0.610087136082382E+000 0.000000000000000E+000
 0.875000000000000E+000 0.000000000000000E+000 0.000000000000000E+000
 0.100000000000000E+001 0.250000000000000E+000 0.000000000000000E+000
 0.100000000000000E+001 0.375000000000000E+000 0.000000000000000E+000
 0.687500000000000E+000 0.700324699898860E+000 0.000000000000000E+000
 0.812500000000000E+000 0.687500000000000E+000 0.000000000000000E+000
 0.804621866531165E+000 0.617121866531165E+000 0.000000000000000E+000
 0.825181931429427E+000 0.549770415540467E+000 0.000000000000000E+000
 0.100000000000000E+001 0.625000000000000E+000 0.000000000000000E+000
 0.100000000000000E+001 0.750000000000000E+000 0.000000000000000E+000
[...]
CELL_DATA          303
SCALARS tdens double 1
LOOKUP_TABLE default
 0.411604893691074E+000
 0.446370069539732E+000
 0.428269763733001E+000
 0.408668798126252E+000
 0.411573206426191E+000
 0.413106411145969E+000
 0.420748661491174E+000
 0.457640359229549E+000
 0.452168956997573E+000
 0.402617514612888E+000
 0.451431840712091E+000
 0.414380404318816E+000
 0.419904767778321E+000
 0.505929326261336E+000
 0.438987063744688E+000
 0.505377452549879E+000
 0.405066689493235E+000
 0.404089056833384E+000
 0.405657579032400E+000
 0.508926420627110E+000
 0.421638314247911E+000
 0.403060364732365E+000
 0.432011803705003E+000
 0.408724718644096E+000
 0.405168362071115E+000
 0.418684750704785E+000
 0.407456079665164E+000
 0.408080213864091E+000
 0.412832052265402E+000
 0.435365408908978E+000
 0.409611707819556E+000
 0.411381717282101E+000
 0.414593791386344E+000
 0.424201180098147E+000
 0.448124883934064E+000
 0.410027950472575E+000
 0.402557863710300E+000
 0.415779367347279E+000
 0.413593198340676E+000
 0.402694130063109E+000
 0.405189196144816E+000
 0.405702525044650E+000
 0.427487753248017E+000
 0.503880720675494E+000
 0.408695829086109E+000
 0.440811811327055E+000
 0.415985762716594E+000
 0.410242757767999E+000
 0.408721282204465E+000
 0.425793076623345E+000
 0.407434824030881E+000
 0.421715972718947E+000
 0.405029428488322E+000
 0.402294631630697E+000
 0.411235624393128E+000
 0.414855809053471E+000
 0.438585362361450E+000
 0.425834429528870E+000
 0.462933479889938E+000
 0.459710423615563E+000
 0.458945210890480E+000
 0.406101740862457E+000
 0.431436056500278E+000
 0.454101550135893E+000
 0.426281792840045E+000
 0.434597083001589E+000
 0.435719627496188E+000
 0.483463832038701E+000
 0.446825892449627E+000
 0.442367418655339E+000
 0.452607916420481E+000
 0.426088914794168E+000
 0.446583892522548E+000
 0.471206610014722E+000
 0.435335701862329E+000
 0.402302839992575E+000
 0.431708651373404E+000
 0.440933855785637E+000
 0.436675852576304E+000
 0.438315661476574E+000
 0.408564489348235E+000
 0.408664810085836E+000
 0.412822521187859E+000
 0.421232728884898E+000
 0.424491925229668E+000
 0.410227344228439E+000
 0.455640976869375E+000
 0.423775271593003E+000
 0.404827487075823E+000
 0.409081207644745E+000
 0.408572113452839E+000
 0.411386044430227E+000
 0.419335370564693E+000
 0.404897987763331E+000
 0.458827811473643E+000
 0.432279916039694E+000
 0.444215286517098E+000
 0.456081609815087E+000
 0.436660721427919E+000
 0.438288936695494E+000
 0.433769578421922E+000
 0.439753165012592E+000
 0.430189683545438E+000
 0.430563158631912E+000
 0.431068379192204E+000
 0.433313216366573E+000
 0.451203799201814E+000
 0.439927966401646E+000
 0.420645577286574E+000
 0.478272991470436E+000
 0.431974381709855E+000
 0.430749142922162E+000
 0.513465247598590E+000
 0.411566464490046E+000
 0.437269323768012E+000
 0.432958931581156E+000
 0.443407083001085E+000
 0.402678921639097E+000
 0.403050041811893E+000
 0.436805542176892E+000
 0.405873303051959E+000
 0.483094723610401E+000
 0.411496308229129E+000
 0.414563717354206E+000
 0.405094568794101E+000
 0.521093550706273E+000
 0.489263004679659E+000
 0.429842467694070E+000
 0.455401565691717E+000
 0.458432150611201E+000
 0.429363375423761E+000
 0.457649039342210E+000
 0.514745095341333E+000
 0.484493958606669E+000
 0.497754400184917E+000
 0.466730342455228E+000
 0.498775338995476E+000
 0.459804774083322E+000
 0.404080477976693E+000
 0.402576154336107E+000
 0.488317211314718E+000
 0.457560497654915E+000
 0.453734782479363E+000
 0.482924593482739E+000
 0.467279072904510E+000
 0.485476195239207E+000
 0.511466839433994E+000
 0.471353045116729E+000
 0.499679911202307E+000
 0.472408516394364E+000
 0.460670637256598E+000
 0.490993770217228E+000
 0.517010995916402E+000
 0.483077587972881E+000
 0.518838254510901E+000
 0.524136108848903E+000
 0.500152449209835E+000
 0.509586492671202E+000
 0.482494848635446E+000
 0.484368890848700E+000
 0.491034942598615E+000
 0.501046737640644E+000
 0.411889558608146E+000
 0.441647415225656E+000
 0.441229809578987E+000
 0.438941068808937E+000
 0.462333179708067E+000
 0.452699782978038E+000
 0.439232033766560E+000
 0.469107978165767E+000
 0.417214558011136E+000
 0.429207694581001E+000
 0.433069406524628E+000
 0.404451114029853E+000
 0.432796383357151E+000
 0.429868539967816E+000
 0.431493175587087E+000
 0.441755011128960E+000
 0.414699083454797E+000
 0.476435526441934E+000
 0.438010417064551E+000
 0.424355750448163E+000
 0.424447506678127E+000
 0.420020813846262E+000
 0.448984025013039E+000
 0.487513180885567E+000
 0.476897826681725E+000
 0.443571150692753E+000
 0.402831139766072E+000
 0.413084732940033E+000
 0.448428448928418E+000
 0.431417518941961E+000
 0.404283131013362E+000
 0.406837002340557E+000
 0.439342547126242E+000
 0.431577716893523E+000
 0.411540535731881E+000
 0.433579744175022E+000
 0.454953747719020E+000
 0.409682936604945E+000
 0.406706898529291E+000
 0.417574285867295E+000
 0.484702509890092E+000
 0.405295989119882E+000
 0.403194914420448E+000
 0.436875755688087E+000
 0.435830226767132E+000
 0.430549627341388E+000
 0.464742915077609E+000
 0.482591745248971E+000
 0.435865566290721E+000
 0.483721142245096E+000
 0.405339775044163E+000
 0.405388495694341E+000
 0.414504541375641E+000
 0.446318131545269E+000
 0.477681071395870E+000
 0.521039352261923E+000
 0.476240892477331E+000
 0.506636743557579E+000
 0.497948884453235E+000
 0.428934615652743E+000
 0.442831518229495E+000
 0.522114001279303E+000
 0.517374693069034E+000
 0.517883465282951E+000
 0.509946644796459E+000
 0.526451064563521E+000
 0.524152357421395E+000
 0.523896383071591E+000
 0.519174379327584E+000
 0.498155146534719E+000
 0.518484524916390E+000
 0.521168705020033E+000
 0.524339569976738E+000
 0.521503099103957E+000
 0.513793174144110E+000
 0.415994139621053E+000
 0.419221868758871E+000
 0.488643034715736E+000
 0.408795745143024E+000
 0.444382284428390E+000
 0.418043614183543E+000
 0.433149229600825E+000
 0.411034618934200E+000
 0.403892977880447E+000
 0.416776273300554E+000
 0.408484382401857E+000
 0.408536363389735E+000
 0.416561446960307E+000
 0.410648679864887E+000
 0.412305610848133E+000
 0.408825210987285E+000
 0.403252054932676E+000
 0.403134563747509E+000
 0.408567422776326E+000
 0.412652844695928E+000
 0.405083179756498E+000
 0.405250519747574E+000
 0.455532747155368E+000
 0.442466298223088E+000
 0.437361496811785E+000
 0.443794556695213E+000
 0.470167368862469E+000
 0.449364156817826E+000
 0.431146040467167E+000
 0.431266613998637E+000
 0.458701804703669E+000
 0.436066276997910E+000
 0.446665552426704E+000
 0.410662709059707E+000
 0.423287461282169E+000
 0.439665736087142E+000
 0.436612380864670E+000
 0.444425938254301E+000
 0.434190189921055E+000
 0.426808326791561E+000
 0.426026944043373E+000
 0.437080083573091E+000
 0.411595388878524E+000
 0.408715600804254E+000
 0.412922357133536E+000
 0.402597007529428E+000
 0.402825270918171E+000
 0.422765901856696E+000
 0.413702090947054E+000
 0.408740670436573E+000
 0.407888056176420E+000
 0.410492345793055E+000
 0.409293813555366E+000
 0.422992212590349E+000
 0.412330740224104E+000
 0.408295689077444E+000
 0.413432084693730E+000
 0.418706006982136E+000
 0.404113839537134E+000
 0.412587164184885E+000
 0.408974844779757E+000
 0.410969038107349E+000
 0.405019904117721E+000
 0.406488730348901E+000
 0.402516575615598E+000
 0.402317019021972E+000
