# vtk DataFile Version 3.0
Unstructured Grid
ASCII
DATASET UNSTRUCTURED_GRID
FIELD FieldData 1
TIME 1 1 float
  0.365833E+02
POINTS          169 double
 0.000000000000000E+000 0.000000000000000E+000 0.000000000000000E+000
 0.100000000000000E+001 0.000000000000000E+000 0.000000000000000E+000
 0.100000000000000E+001 0.100000000000000E+001 0.000000000000000E+000
 0.000000000000000E+000 0.100000000000000E+001 0.000000000000000E+000
 0.125000000000000E+000 0.250000000000000E+000 0.000000000000000E+000
 0.375000000000000E+000 0.250000000000000E+000 0.000000000000000E+000
 0.375000000000000E+000 0.750000000000000E+000 0.000000000000000E+000
 0.125000000000000E+000 0.750000000000000E+000 0.000000000000000E+000
 0.625000000000000E+000 0.250000000000000E+000 0.000000000000000E+000
 0.875000000000000E+000 0.250000000000000E+000 0.000000000000000E+000
 0.875000000000000E+000 0.750000000000000E+000 0.000000000000000E+000
 0.625000000000000E+000 0.750000000000000E+000 0.000000000000000E+000
 0.100000000000000E+001 0.500000000000000E+000 0.000000000000000E+000
 0.000000000000000E+000 0.500000000000000E+000 0.000000000000000E+000
 0.500000000000000E+000 0.000000000000000E+000 0.000000000000000E+000
 0.125000000000000E+000 0.500000000000000E+000 0.000000000000000E+000
 0.000000000000000E+000 0.750000000000000E+000 0.000000000000000E+000
 0.000000000000000E+000 0.250000000000000E+000 0.000000000000000E+000
 0.000000000000000E+000 0.875000000000000E+000 0.000000000000000E+000
 0.000000000000000E+000 0.125000000000000E+000 0.000000000000000E+000
 0.625000000000000E-001 0.812500000000000E+000 0.000000000000000E+000
 0.125000000000000E+000 0.375000000000000E+000 0.000000000000000E+000
 0.125000000000000E+000 0.625000000000000E+000 0.000000000000000E+000
 0.500000000000000E+000 0.100000000000000E+001 0.000000000000000E+000
 0.250000000000000E+000 0.100000000000000E+001 0.000000000000000E+000
 0.125000000000000E+000 0.100000000000000E+001 0.000000000000000E+000
 0.729166666666667E-001 0.885416666666667E+000 0.000000000000000E+000
 0.000000000000000E+000 0.625000000000000E+000 0.000000000000000E+000
 0.625000000000000E-001 0.562500000000000E+000 0.000000000000000E+000
 0.375000000000000E+000 0.500000000000000E+000 0.000000000000000E+000
 0.375000000000000E+000 0.100000000000000E+001 0.000000000000000E+000
 0.250000000000000E+000 0.000000000000000E+000 0.000000000000000E+000
 0.625000000000000E-001 0.187500000000000E+000 0.000000000000000E+000
 0.143518518518519E+000 0.775462962962963E-001 0.000000000000000E+000
 0.156250000000000E+000 0.156250000000000E+000 0.000000000000000E+000
 0.729166666666667E-001 0.114583333333333E+000 0.000000000000000E+000
 0.125000000000000E+000 0.000000000000000E+000 0.000000000000000E+000
 0.250000000000000E+000 0.250000000000000E+000 0.000000000000000E+000
 0.375000000000000E+000 0.000000000000000E+000 0.000000000000000E+000
 0.187500000000000E+000 0.218750000000000E+000 0.000000000000000E+000
 0.312500000000000E+000 0.762453007518797E-001 0.000000000000000E+000
 0.270259392278489E+000 0.159169301283415E+000 0.000000000000000E+000
 0.365310977506407E+000 0.155367112827996E+000 0.000000000000000E+000
 0.312500000000000E+000 0.216265619131990E+000 0.000000000000000E+000
 0.500000000000000E+000 0.189389379011873E+000 0.000000000000000E+000
 0.426456487258648E+000 0.196919158251449E+000 0.000000000000000E+000
 0.451620395371675E+000 0.941243892751461E-001 0.000000000000000E+000
 0.381804756165356E+000 0.871724813114945E-001 0.000000000000000E+000
 0.437500000000000E+000 0.273708879364394E-001 0.000000000000000E+000
 0.000000000000000E+000 0.375000000000000E+000 0.000000000000000E+000
 0.625000000000000E-001 0.312500000000000E+000 0.000000000000000E+000
 0.250000000000000E+000 0.750000000000000E+000 0.000000000000000E+000
 0.158482142857143E+000 0.851934523809524E+000 0.000000000000000E+000
 0.210861885404568E+000 0.921875000000000E+000 0.000000000000000E+000
 0.136017278952732E+000 0.925863358051789E+000 0.000000000000000E+000
 0.625000000000000E-001 0.687500000000000E+000 0.000000000000000E+000
 0.250000000000000E+000 0.437500000000000E+000 0.000000000000000E+000
 0.247528011619582E+000 0.839830719156545E+000 0.000000000000000E+000
 0.312500000000000E+000 0.796669265575374E+000 0.000000000000000E+000
 0.419664368355990E+000 0.875000000000000E+000 0.000000000000000E+000
 0.313183356674252E+000 0.918387829019328E+000 0.000000000000000E+000
 0.312500000000000E+000 0.100000000000000E+001 0.000000000000000E+000
 0.380617553087688E+000 0.931527612480385E+000 0.000000000000000E+000
 0.187500000000000E+000 0.785936956899548E+000 0.000000000000000E+000
 0.350379273974835E+000 0.857317802397078E+000 0.000000000000000E+000
 0.228046514569416E+000 0.817347524546315E-001 0.000000000000000E+000
 0.187500000000000E+000 0.312500000000000E+000 0.000000000000000E+000
 0.625000000000000E-001 0.437500000000000E+000 0.000000000000000E+000
 0.197916666666667E+000 0.385416666666667E+000 0.000000000000000E+000
 0.375000000000000E+000 0.375000000000000E+000 0.000000000000000E+000
 0.750000000000000E+000 0.000000000000000E+000 0.000000000000000E+000
 0.625000000000000E-001 0.959280303030303E+000 0.000000000000000E+000
 0.234375000000000E+000 0.562500000000000E+000 0.000000000000000E+000
 0.187500000000000E+000 0.687500000000000E+000 0.000000000000000E+000
 0.193892045454545E+000 0.618607954545455E+000 0.000000000000000E+000
 0.375000000000000E+000 0.625000000000000E+000 0.000000000000000E+000
 0.283775504647110E+000 0.640801989544002E+000 0.000000000000000E+000
 0.281298714846257E+000 0.504888901855782E+000 0.000000000000000E+000
 0.331282779604339E+000 0.562500000000000E+000 0.000000000000000E+000
 0.338845441361880E+000 0.687500000000000E+000 0.000000000000000E+000
 0.500000000000000E+000 0.775815254846569E+000 0.000000000000000E+000
 0.625000000000000E-001 0.407196969696970E-001 0.000000000000000E+000
 0.328125000000000E+000 0.437500000000000E+000 0.000000000000000E+000
 0.284143518518519E+000 0.340856481481482E+000 0.000000000000000E+000
 0.312500000000000E+000 0.278356481481482E+000 0.000000000000000E+000
 0.625000000000000E+000 0.500000000000000E+000 0.000000000000000E+000
 0.410581328448014E+000 0.312500000000000E+000 0.000000000000000E+000
 0.543730092976870E+000 0.258404709955172E+000 0.000000000000000E+000
 0.625000000000000E+000 0.375000000000000E+000 0.000000000000000E+000
 0.500000000000000E+000 0.404784409423024E+000 0.000000000000000E+000
 0.590394028376448E+000 0.312500000000000E+000 0.000000000000000E+000
 0.467392923590959E+000 0.261422480241605E+000 0.000000000000000E+000
 0.508234229043035E+000 0.327522431406248E+000 0.000000000000000E+000
 0.625000000000000E+000 0.000000000000000E+000 0.000000000000000E+000
 0.537311919648379E+000 0.110523699730938E+000 0.000000000000000E+000
 0.750000000000000E+000 0.250000000000000E+000 0.000000000000000E+000
 0.593146640296986E+000 0.172723366619635E+000 0.000000000000000E+000
 0.623771215502605E+000 0.890722450407200E-001 0.000000000000000E+000
 0.687500000000000E+000 0.454068088573020E-001 0.000000000000000E+000
 0.793069391389776E+000 0.125000000000000E+000 0.000000000000000E+000
 0.695513657869308E+000 0.162768437982326E+000 0.000000000000000E+000
 0.687500000000000E+000 0.250000000000000E+000 0.000000000000000E+000
 0.875000000000000E+000 0.500000000000000E+000 0.000000000000000E+000
 0.727921748554044E+000 0.101601148842529E+000 0.000000000000000E+000
 0.759582972952604E+000 0.183381972603444E+000 0.000000000000000E+000
 0.875000000000000E+000 0.375000000000000E+000 0.000000000000000E+000
 0.718750000000000E+000 0.343750000000000E+000 0.000000000000000E+000
 0.697916666666667E+000 0.437500000000000E+000 0.000000000000000E+000
 0.750000000000000E+000 0.572048611111111E+000 0.000000000000000E+000
 0.787123226950355E+000 0.408133865248227E+000 0.000000000000000E+000
 0.804687500000000E+000 0.320312500000000E+000 0.000000000000000E+000
 0.700214460784314E+000 0.513965482026144E+000 0.000000000000000E+000
 0.783021635712153E+000 0.493366127722916E+000 0.000000000000000E+000
 0.625000000000000E+000 0.625000000000000E+000 0.000000000000000E+000
 0.848380638879200E+000 0.437500000000000E+000 0.000000000000000E+000
 0.562500000000000E+000 0.404604515401992E-001 0.000000000000000E+000
 0.875000000000000E+000 0.625000000000000E+000 0.000000000000000E+000
 0.750000000000000E+000 0.750000000000000E+000 0.000000000000000E+000
 0.697046765904942E+000 0.621060933265583E+000 0.000000000000000E+000
 0.200520833333333E+000 0.494791666666667E+000 0.000000000000000E+000
 0.429642360217793E+000 0.800955091165693E+000 0.000000000000000E+000
 0.453073336954457E+000 0.687500000000000E+000 0.000000000000000E+000
 0.548183885155829E+000 0.693587592964698E+000 0.000000000000000E+000
 0.750000000000000E+000 0.100000000000000E+001 0.000000000000000E+000
 0.573843760532799E+000 0.437500000000000E+000 0.000000000000000E+000
 0.500000000000000E+000 0.550126792242997E+000 0.000000000000000E+000
 0.511972906944656E+000 0.477455600833011E+000 0.000000000000000E+000
 0.437507615834863E+000 0.452402202857321E+000 0.000000000000000E+000
 0.546458141439317E+000 0.614345103225503E+000 0.000000000000000E+000
 0.571440414895569E+000 0.547357897962524E+000 0.000000000000000E+000
 0.450991397292447E+000 0.610087136082382E+000 0.000000000000000E+000
 0.875000000000000E+000 0.000000000000000E+000 0.000000000000000E+000
 0.100000000000000E+001 0.250000000000000E+000 0.000000000000000E+000
 0.100000000000000E+001 0.375000000000000E+000 0.000000000000000E+000
 0.687500000000000E+000 0.700324699898860E+000 0.000000000000000E+000
 0.812500000000000E+000 0.687500000000000E+000 0.000000000000000E+000
 0.804621866531165E+000 0.617121866531165E+000 0.000000000000000E+000
 0.825181931429427E+000 0.549770415540467E+000 0.000000000000000E+000
 0.100000000000000E+001 0.625000000000000E+000 0.000000000000000E+000
 0.100000000000000E+001 0.750000000000000E+000 0.000000000000000E+000
[...]
CELL_DATA          303
SCALARS tdens double 1
LOOKUP_TABLE default
 0.205831987116841E-010
 0.638644215978647E-010
 0.395781850271524E+000
 0.169805211660728E-010
 0.205020396705906E-010
 0.207721815690141E-010
 0.269522356402462E-010
 0.128819123204665E-009
 0.268735351970215E-002
 0.130323322181090E-010
 0.753143998898620E-010
 0.222255942735834E-010
 0.447761353295215E-010
 0.164986044309947E-001
 0.418463461826096E-010
 0.175397582220869E-001
 0.146493447530818E-010
 0.147640161942039E-010
 0.200547599570752E-010
 0.314235298079852E-008
 0.542474171884974E-010
 0.144329400583396E-010
 0.585934066595969E-001
 0.169835134976891E-010
 0.149532152550204E-010
 0.298307325625547E-010
 0.168246998423130E-010
 0.192420694385636E-001
 0.269543923592983E-010
 0.995479679055217E-010
 0.193785081200072E-010
 0.187780495329482E-010
 0.390479775530084E-002
 0.424404928143401E-010
 0.735654755954417E-010
 0.187160043399421E-010
 0.138004488454945E-010
 0.294428976556579E-010
 0.225031413772561E-010
 0.130868231813590E-010
 0.149152747693896E-010
 0.191949613076996E-010
 0.129580046165481E+001
 0.166827700264037E-007
 0.159401672993663E+000
 0.455945313417432E-010
 0.298217239280944E-010
 0.197663913822205E-010
 0.170305257165202E-010
 0.340557051346620E-010
 0.168193223476282E-010
 0.274216684221945E-010
 0.154028815196502E-010
 0.136124835246988E-010
 0.192786101272905E-010
 0.237378062933221E-010
 0.422904746964388E-010
 0.458733531771187E-010
 0.217344986577929E-009
 0.217681373160603E-009
 0.132047780422263E-009
 0.161669990980288E-010
 0.169932796771304E-009
 0.132058124357111E-009
 0.303081443199662E-010
 0.457236588642075E-010
 0.382384709381041E-010
 0.592830303874560E-008
 0.909913607256910E-010
 0.737824980221102E-010
 0.774438540123232E-010
 0.298159337055798E-010
 0.700856766128360E-010
 0.280504692310635E-009
 0.441966613248849E-010
 0.136230736161106E-010
 0.360240074726317E-010
 0.501435209943326E-010
 0.382618284492758E-010
 0.410396572094755E-010
 0.153881397555250E-010
 0.168385567256882E-010
 0.264994467028503E-010
 0.508631694445532E-010
 0.328233795835224E-010
 0.196891763404514E-010
 0.877988616070527E-002
 0.289996932397539E-010
 0.153016774153150E-010
 0.189005073934356E-010
 0.153550794442503E-010
 0.187476916936911E-010
 0.275751838068951E-001
 0.408706882088145E-002
 0.203210293962122E-009
 0.437400193894365E-010
 0.822893447437226E-010
 0.108178385511427E-009
 0.396150387932114E-010
 0.648693017414029E-010
 0.415672328363014E-010
 0.471047891231212E-010
 0.340982582196949E-010
 0.344505405673786E-010
 0.163898307742926E-009
 0.976938159106373E-010
 0.124187607774563E-009
 0.490399325033050E-010
 0.319532588890896E-010
 0.104127043337755E+000
 0.360305893599965E-001
 0.347950526692172E-010
 0.139862846391625E-001
 0.706915524142597E-001
 0.735642159813509E-001
 0.274995629636332E+000
 0.553901652046408E-010
 0.130801194429149E-010
 0.144804109987836E-010
 0.144698971339672E-006
 0.160092510677705E-010
 0.207130708966515E+000
 0.690670755230129E-001
 0.372216857922130E-002
 0.349957903973034E-002
 0.763090716860150E-008
 0.180133380381849E-001
 0.124725233410198E-002
 0.110359706539591E+000
 0.125763718124623E+000
 0.617678759851060E-007
 0.960124254705370E-002
 0.285192338683150E-001
 0.353206676581258E+001
 0.459142739250231E-001
 0.332360777305212E-002
 0.129738199310352E-007
 0.212728380880855E-009
 0.147510104529884E-010
 0.137852527153902E-010
 0.758820608422869E-006
 0.117327619178234E+001
 0.280707260132976E-002
 0.454148925571100E+001
 0.461039266808684E-002
 0.182517430824318E-001
 0.278533846725137E-008
 0.573946048939990E-009
 0.280455063279026E-007
 0.288238916538645E-009
 0.170924834969267E-009
 0.250389293676835E-008
 0.114958964256240E+002
 0.862110290827599E-002
 0.992247696495259E-007
 0.421673648251657E-004
 0.132447350170907E-006
 0.269705184930637E-008
 0.346340512973367E-008
 0.618063969263157E-008
 0.231312692755118E-008
 0.595141030533738E-008
 0.209798590293077E-010
 0.569444595149433E-010
 0.450160724388545E-010
 0.422708808257889E-010
 0.120696946952049E-009
 0.111715037440896E-009
 0.438598179068941E-010
 0.208956865927785E-009
 0.243675658066779E-010
 0.402376775788522E+000
 0.418838880774610E-010
 0.150020156925086E-010
 0.149663135699973E-009
 0.349295925191066E-010
 0.450201020343028E-010
 0.976156874097867E-010
 0.431779290683399E-002
 0.497760445100270E+001
 0.108871568215732E+000
 0.289963422454491E-010
 0.361683443246909E-010
 0.354429567220853E-010
 0.160846997608431E-009
 0.111261893396496E-007
 0.880642154810184E-001
 0.369394540984167E+000
 0.135043337701414E-010
 0.288765420839787E-010
 0.966415354109251E+000
 0.974753669055361E+000
 0.687512136379266E-001
 0.188498458006822E-006
 0.598046175271142E-005
 0.429869269405521E-001
 0.547319707247767E-001
 0.551246033495675E-007
 0.252488728659587E-001
 0.155487230022969E+000
 0.180574875875627E-001
 0.312854391681058E-010
 0.630948363258281E-009
 0.165585301096933E-001
 0.703474004335535E-007
 0.386304544969460E-010
 0.382420494313706E-010
 0.845808868774351E-008
 0.297832108207084E-002
 0.428579617436169E+001
 0.157660010832841E+001
 0.112242942849269E-003
 0.162579141473785E-010
 0.150268020512367E-001
 0.373104631577549E-002
 0.755374975574078E-010
 0.791556350530256E-009
 0.160638121818450E-003
 0.566758281228322E-009
 0.164917785465235E-008
 0.130696316442943E-007
 0.457762270859810E-010
 0.520651889769774E-001
 0.127736892635063E-007
 0.153707835503007E+002
 0.657352309996034E+001
 0.358224651407339E-008
 0.189877325871019E-007
 0.100409552281402E-007
 0.218315093197094E-005
 0.103638704345393E-006
 0.727983996852047E-008
 0.905155224563853E-003
 0.811773060693900E-008
 0.638636097568967E-001
 0.312483257202283E+001
 0.828787238859369E+001
 0.289038900168152E-010
 0.268384785363136E-010
 0.284653350919176E-001
 0.170795541812375E-010
 0.352704699318202E+000
 0.148160164468720E+000
 0.358162460115793E-001
 0.118732137262916E+000
 0.257022233140809E-002
 0.116617757813394E-001
 0.152704574215095E-010
 0.185176544045207E-010
 0.241092514586840E-010
 0.174122064193419E-010
 0.200114350546711E-010
 0.177678890753170E-010
 0.142412017366344E-010
 0.141424485649730E-010
 0.153015065382391E-010
 0.220480833502772E-010
 0.148417514404577E-010
 0.165258816949661E-010
 0.103850331073218E-009
 0.613150318367221E-010
 0.402235239207611E-010
 0.530325803013640E-010
 0.464877854651622E-009
 0.866275246801011E-010
 0.161108794134916E-009
 0.361011732142119E-010
 0.257419597604166E-009
 0.393953600420560E-010
 0.975522766980565E-010
 0.173052100742657E-010
 0.289460711311992E-010
 0.454628135561172E-010
 0.387392427202525E-010
 0.623841504334584E-010
 0.415465195694923E-010
 0.357789137922458E-010
 0.301514818714266E-010
 0.935907059255457E-010
 0.210133245938229E-010
 0.170309413142190E-010
 0.289435226497583E-010
 0.130655218145692E-010
 0.135581838085085E-010
 0.491206040952401E-010
 0.234717933620610E-010
 0.169935059850934E-010
 0.170305289014253E-010
 0.197726273091661E-010
 0.179096091577564E-010
 0.379068565114065E-010
 0.201860444478896E-010
 0.176050218643723E-010
 0.247589805639674E-010
 0.269768907368374E-010
 0.148335989163665E-010
 0.218354763681755E-010
 0.171723778412980E-010
 0.211302782318508E-010
 0.154024085533233E-010
 0.165155578657470E-010
 0.137427934934415E-010
 0.136552258536605E-010
