# vtk DataFile Version 3.0
Unstructured Grid
ASCII
DATASET UNSTRUCTURED_GRID
FIELD FieldData 1
TIME 1 1 float
  0.385833E+02
POINTS          169 double
 0.000000000000000E+000 0.000000000000000E+000 0.000000000000000E+000
 0.100000000000000E+001 0.000000000000000E+000 0.000000000000000E+000
 0.100000000000000E+001 0.100000000000000E+001 0.000000000000000E+000
 0.000000000000000E+000 0.100000000000000E+001 0.000000000000000E+000
 0.125000000000000E+000 0.250000000000000E+000 0.000000000000000E+000
 0.375000000000000E+000 0.250000000000000E+000 0.000000000000000E+000
 0.375000000000000E+000 0.750000000000000E+000 0.000000000000000E+000
 0.125000000000000E+000 0.750000000000000E+000 0.000000000000000E+000
 0.625000000000000E+000 0.250000000000000E+000 0.000000000000000E+000
 0.875000000000000E+000 0.250000000000000E+000 0.000000000000000E+000
 0.875000000000000E+000 0.750000000000000E+000 0.000000000000000E+000
 0.625000000000000E+000 0.750000000000000E+000 0.000000000000000E+000
 0.100000000000000E+001 0.500000000000000E+000 0.000000000000000E+000
 0.000000000000000E+000 0.500000000000000E+000 0.000000000000000E+000
 0.500000000000000E+000 0.000000000000000E+000 0.000000000000000E+000
 0.125000000000000E+000 0.500000000000000E+000 0.000000000000000E+000
 0.000000000000000E+000 0.750000000000000E+000 0.000000000000000E+000
 0.000000000000000E+000 0.250000000000000E+000 0.000000000000000E+000
 0.000000000000000E+000 0.875000000000000E+000 0.000000000000000E+000
 0.000000000000000E+000 0.125000000000000E+000 0.000000000000000E+000
 0.625000000000000E-001 0.812500000000000E+000 0.000000000000000E+000
 0.125000000000000E+000 0.375000000000000E+000 0.000000000000000E+000
 0.125000000000000E+000 0.625000000000000E+000 0.000000000000000E+000
 0.500000000000000E+000 0.100000000000000E+001 0.000000000000000E+000
 0.250000000000000E+000 0.100000000000000E+001 0.000000000000000E+000
 0.125000000000000E+000 0.100000000000000E+001 0.000000000000000E+000
 0.729166666666667E-001 0.885416666666667E+000 0.000000000000000E+000
 0.000000000000000E+000 0.625000000000000E+000 0.000000000000000E+000
 0.625000000000000E-001 0.562500000000000E+000 0.000000000000000E+000
 0.375000000000000E+000 0.500000000000000E+000 0.000000000000000E+000
 0.375000000000000E+000 0.100000000000000E+001 0.000000000000000E+000
 0.250000000000000E+000 0.000000000000000E+000 0.000000000000000E+000
 0.625000000000000E-001 0.187500000000000E+000 0.000000000000000E+000
 0.143518518518519E+000 0.775462962962963E-001 0.000000000000000E+000
 0.156250000000000E+000 0.156250000000000E+000 0.000000000000000E+000
 0.729166666666667E-001 0.114583333333333E+000 0.000000000000000E+000
 0.125000000000000E+000 0.000000000000000E+000 0.000000000000000E+000
 0.250000000000000E+000 0.250000000000000E+000 0.000000000000000E+000
 0.375000000000000E+000 0.000000000000000E+000 0.000000000000000E+000
 0.187500000000000E+000 0.218750000000000E+000 0.000000000000000E+000
 0.312500000000000E+000 0.762453007518797E-001 0.000000000000000E+000
 0.270259392278489E+000 0.159169301283415E+000 0.000000000000000E+000
 0.365310977506407E+000 0.155367112827996E+000 0.000000000000000E+000
 0.312500000000000E+000 0.216265619131990E+000 0.000000000000000E+000
 0.500000000000000E+000 0.189389379011873E+000 0.000000000000000E+000
 0.426456487258648E+000 0.196919158251449E+000 0.000000000000000E+000
 0.451620395371675E+000 0.941243892751461E-001 0.000000000000000E+000
 0.381804756165356E+000 0.871724813114945E-001 0.000000000000000E+000
 0.437500000000000E+000 0.273708879364394E-001 0.000000000000000E+000
 0.000000000000000E+000 0.375000000000000E+000 0.000000000000000E+000
 0.625000000000000E-001 0.312500000000000E+000 0.000000000000000E+000
 0.250000000000000E+000 0.750000000000000E+000 0.000000000000000E+000
 0.158482142857143E+000 0.851934523809524E+000 0.000000000000000E+000
 0.210861885404568E+000 0.921875000000000E+000 0.000000000000000E+000
 0.136017278952732E+000 0.925863358051789E+000 0.000000000000000E+000
 0.625000000000000E-001 0.687500000000000E+000 0.000000000000000E+000
 0.250000000000000E+000 0.437500000000000E+000 0.000000000000000E+000
 0.247528011619582E+000 0.839830719156545E+000 0.000000000000000E+000
 0.312500000000000E+000 0.796669265575374E+000 0.000000000000000E+000
 0.419664368355990E+000 0.875000000000000E+000 0.000000000000000E+000
 0.313183356674252E+000 0.918387829019328E+000 0.000000000000000E+000
 0.312500000000000E+000 0.100000000000000E+001 0.000000000000000E+000
 0.380617553087688E+000 0.931527612480385E+000 0.000000000000000E+000
 0.187500000000000E+000 0.785936956899548E+000 0.000000000000000E+000
 0.350379273974835E+000 0.857317802397078E+000 0.000000000000000E+000
 0.228046514569416E+000 0.817347524546315E-001 0.000000000000000E+000
 0.187500000000000E+000 0.312500000000000E+000 0.000000000000000E+000
 0.625000000000000E-001 0.437500000000000E+000 0.000000000000000E+000
 0.197916666666667E+000 0.385416666666667E+000 0.000000000000000E+000
 0.375000000000000E+000 0.375000000000000E+000 0.000000000000000E+000
 0.750000000000000E+000 0.000000000000000E+000 0.000000000000000E+000
 0.625000000000000E-001 0.959280303030303E+000 0.000000000000000E+000
 0.234375000000000E+000 0.562500000000000E+000 0.000000000000000E+000
 0.187500000000000E+000 0.687500000000000E+000 0.000000000000000E+000
 0.193892045454545E+000 0.618607954545455E+000 0.000000000000000E+000
 0.375000000000000E+000 0.625000000000000E+000 0.000000000000000E+000
 0.283775504647110E+000 0.640801989544002E+000 0.000000000000000E+000
 0.281298714846257E+000 0.504888901855782E+000 0.000000000000000E+000
 0.331282779604339E+000 0.562500000000000E+000 0.000000000000000E+000
 0.338845441361880E+000 0.687500000000000E+000 0.000000000000000E+000
 0.500000000000000E+000 0.775815254846569E+000 0.000000000000000E+000
 0.625000000000000E-001 0.407196969696970E-001 0.000000000000000E+000
 0.328125000000000E+000 0.437500000000000E+000 0.000000000000000E+000
 0.284143518518519E+000 0.340856481481482E+000 0.000000000000000E+000
 0.312500000000000E+000 0.278356481481482E+000 0.000000000000000E+000
 0.625000000000000E+000 0.500000000000000E+000 0.000000000000000E+000
 0.410581328448014E+000 0.312500000000000E+000 0.000000000000000E+000
 0.543730092976870E+000 0.258404709955172E+000 0.000000000000000E+000
 0.625000000000000E+000 0.375000000000000E+000 0.000000000000000E+000
 0.500000000000000E+000 0.404784409423024E+000 0.000000000000000E+000
 0.590394028376448E+000 0.312500000000000E+000 0.000000000000000E+000
 0.467392923590959E+000 0.261422480241605E+000 0.000000000000000E+000
 0.508234229043035E+000 0.327522431406248E+000 0.000000000000000E+000
 0.625000000000000E+000 0.000000000000000E+000 0.000000000000000E+000
 0.537311919648379E+000 0.110523699730938E+000 0.000000000000000E+000
 0.750000000000000E+000 0.250000000000000E+000 0.000000000000000E+000
 0.593146640296986E+000 0.172723366619635E+000 0.000000000000000E+000
 0.623771215502605E+000 0.890722450407200E-001 0.000000000000000E+000
 0.687500000000000E+000 0.454068088573020E-001 0.000000000000000E+000
 0.793069391389776E+000 0.125000000000000E+000 0.000000000000000E+000
 0.695513657869308E+000 0.162768437982326E+000 0.000000000000000E+000
 0.687500000000000E+000 0.250000000000000E+000 0.000000000000000E+000
 0.875000000000000E+000 0.500000000000000E+000 0.000000000000000E+000
 0.727921748554044E+000 0.101601148842529E+000 0.000000000000000E+000
 0.759582972952604E+000 0.183381972603444E+000 0.000000000000000E+000
 0.875000000000000E+000 0.375000000000000E+000 0.000000000000000E+000
 0.718750000000000E+000 0.343750000000000E+000 0.000000000000000E+000
 0.697916666666667E+000 0.437500000000000E+000 0.000000000000000E+000
 0.750000000000000E+000 0.572048611111111E+000 0.000000000000000E+000
 0.787123226950355E+000 0.408133865248227E+000 0.000000000000000E+000
 0.804687500000000E+000 0.320312500000000E+000 0.000000000000000E+000
 0.700214460784314E+000 0.513965482026144E+000 0.000000000000000E+000
 0.783021635712153E+000 0.493366127722916E+000 0.000000000000000E+000
 0.625000000000000E+000 0.625000000000000E+000 0.000000000000000E+000
 0.848380638879200E+000 0.437500000000000E+000 0.000000000000000E+000
 0.562500000000000E+000 0.404604515401992E-001 0.000000000000000E+000
 0.875000000000000E+000 0.625000000000000E+000 0.000000000000000E+000
 0.750000000000000E+000 0.750000000000000E+000 0.000000000000000E+000
 0.697046765904942E+000 0.621060933265583E+000 0.000000000000000E+000
 0.200520833333333E+000 0.494791666666667E+000 0.000000000000000E+000
 0.429642360217793E+000 0.800955091165693E+000 0.000000000000000E+000
 0.453073336954457E+000 0.687500000000000E+000 0.000000000000000E+000
 0.548183885155829E+000 0.693587592964698E+000 0.000000000000000E+000
 0.750000000000000E+000 0.100000000000000E+001 0.000000000000000E+000
 0.573843760532799E+000 0.437500000000000E+000 0.000000000000000E+000
 0.500000000000000E+000 0.550126792242997E+000 0.000000000000000E+000
 0.511972906944656E+000 0.477455600833011E+000 0.000000000000000E+000
 0.437507615834863E+000 0.452402202857321E+000 0.000000000000000E+000
 0.546458141439317E+000 0.614345103225503E+000 0.000000000000000E+000
 0.571440414895569E+000 0.547357897962524E+000 0.000000000000000E+000
 0.450991397292447E+000 0.610087136082382E+000 0.000000000000000E+000
 0.875000000000000E+000 0.000000000000000E+000 0.000000000000000E+000
 0.100000000000000E+001 0.250000000000000E+000 0.000000000000000E+000
 0.100000000000000E+001 0.375000000000000E+000 0.000000000000000E+000
 0.687500000000000E+000 0.700324699898860E+000 0.000000000000000E+000
 0.812500000000000E+000 0.687500000000000E+000 0.000000000000000E+000
 0.804621866531165E+000 0.617121866531165E+000 0.000000000000000E+000
 0.825181931429427E+000 0.549770415540467E+000 0.000000000000000E+000
 0.100000000000000E+001 0.625000000000000E+000 0.000000000000000E+000
 0.100000000000000E+001 0.750000000000000E+000 0.000000000000000E+000
[...]
CELL_DATA          303
SCALARS tdens double 1
LOOKUP_TABLE default
 0.514581057206741E-011
 0.159663898973300E-010
 0.388794083193269E+000
 0.424514685006461E-011
 0.512551778138521E-011
 0.519305307776711E-011
 0.673807742095524E-011
 0.322057648673953E-010
 0.268730344884371E-002
 0.325808412693130E-011
 0.188290065225270E-010
 0.555640884995100E-011
 0.111941188746035E-010
 0.166994174670913E-001
 0.104616816100410E-010
 0.174528396784752E-001
 0.366235221878278E-011
 0.369100559928658E-011
 0.501381162879516E-011
 0.785700933387475E-009
 0.135619459314940E-010
 0.360825161052616E-011
 0.586462469795793E-001
 0.424588209001645E-011
 0.373832252567809E-011
 0.745769762972429E-011
 0.420617787297676E-011
 0.204563106419164E-001
 0.673870023474566E-011
 0.248871082965221E-010
 0.484463377026904E-011
 0.469452297630820E-011
 0.390257023503319E-002
 0.106101363865482E-010
 0.183917345277240E-010
 0.467900562127285E-011
 0.345011314376217E-011
 0.736073554102749E-011
 0.562579280735979E-011
 0.327170603390774E-011
 0.372883553595050E-011
 0.479885666011200E-011
 0.130439231892659E+001
 0.417252134750219E-008
 0.160689923361338E+000
 0.113987527729580E-010
 0.745545882601288E-011
 0.494160552120584E-011
 0.425763612233804E-011
 0.851395899433063E-011
 0.420483485563131E-011
 0.685543699277966E-011
 0.385072310417691E-011
 0.340312197233208E-011
 0.481965912763801E-011
 0.593446227172401E-011
 0.105727136840842E-010
 0.114683644880329E-010
 0.543393251101147E-010
 0.544215687788668E-010
 0.330130345074257E-010
 0.404175320376112E-011
 0.424838121104587E-010
 0.330152992908934E-010
 0.757706749068598E-011
 0.114309877582631E-010
 0.955968835358495E-011
 0.148245141904900E-008
 0.227479947169408E-010
 0.184457839103002E-010
 0.193614066389523E-010
 0.745400894337412E-011
 0.175217464687466E-010
 0.701312041849125E-010
 0.110492599901103E-010
 0.340576919579202E-011
 0.900605571773612E-011
 0.125360266921494E-010
 0.956552914952034E-011
 0.102600033153777E-010
 0.384703674852310E-011
 0.420965726552466E-011
 0.662495240923313E-011
 0.127158231127642E-010
 0.820587344567632E-011
 0.492229881272158E-011
 0.920238814353053E-002
 0.724994930521371E-011
 0.382542135256489E-011
 0.472513125858437E-011
 0.383877182975316E-011
 0.468693548527414E-011
 0.271583195123725E-001
 0.408340478995713E-002
 0.508051489895237E-010
 0.109350712519367E-010
 0.205725634194931E-010
 0.270453627396383E-010
 0.990384100875783E-011
 0.162174831211392E-010
 0.103918929349717E-010
 0.117763284024021E-010
 0.852461159044011E-011
 0.861268451763018E-011
 0.409748863160612E-010
 0.244235475580368E-010
 0.310478316682924E-010
 0.122601243351988E-010
 0.798833417393907E-011
 0.109930911588428E+000
 0.360126365467773E-001
 0.869880510812242E-011
 0.140030157911691E-001
 0.707178899480607E-001
 0.733146467613852E-001
 0.277712117119211E+000
 0.138477196353649E-010
 0.327003034692217E-011
 0.362011862613543E-011
 0.362215546682316E-007
 0.400231512337475E-011
 0.203236445186187E+000
 0.688287918227183E-001
 0.372355100453159E-002
 0.345922465580850E-002
 0.190780508131634E-008
 0.174853144719212E-001
 0.373450735678832E-003
 0.105162699911584E+000
 0.125374240420567E+000
 0.154601149905922E-007
 0.955807015853181E-002
 0.178680940038602E-001
 0.360806384502391E+001
 0.460675106922715E-001
 0.332116070135824E-002
 0.324429857355152E-008
 0.531843944567529E-010
 0.368775477607816E-011
 0.344631439893513E-011
 0.190608370506483E-006
 0.119149507536618E+001
 0.123258159774256E-002
 0.455871365388933E+001
 0.727425089273684E-002
 0.168613340768106E-001
 0.696435279623251E-009
 0.143497473149688E-009
 0.701477330042776E-008
 0.720644169656611E-010
 0.427331447129111E-010
 0.626119851291692E-009
 0.115553438042542E+002
 0.862062374839243E-002
 0.248076311679338E-007
 0.110684552685707E-004
 0.331561047787541E-007
 0.674391248871472E-009
 0.866066552809890E-009
 0.154559226667382E-008
 0.578379093574604E-009
 0.148816069186300E-008
 0.524497176292239E-011
 0.142362453220660E-010
 0.112541366008194E-010
 0.105678139050069E-010
 0.301750108707735E-010
 0.279293344713481E-010
 0.109650534965628E-010
 0.522419705837163E-010
 0.609190287183138E-011
 0.404747798974374E+000
 0.104710261633103E-010
 0.375050601490634E-011
 0.374162363306519E-010
 0.873243538473023E-011
 0.112550590544686E-010
 0.244042724972322E-010
 0.431789951950898E-002
 0.501070392050293E+001
 0.108911801762157E+000
 0.724910642854113E-011
 0.904210271328960E-011
 0.886075650905127E-011
 0.402167194110682E-010
 0.278289517751285E-008
 0.880204743687573E-001
 0.364806185605288E+000
 0.337608811785971E-011
 0.721925944525504E-011
 0.992253985614326E+000
 0.100014478257445E+001
 0.692277883359458E-001
 0.472160696374258E-007
 0.150849189997882E-005
 0.429925109045189E-001
 0.547271005365553E-001
 0.137891027716578E-007
 0.257113022245753E-001
 0.155114971967173E+000
 0.200910355030119E-001
 0.782138488806330E-011
 0.157749877707053E-009
 0.165327747084950E-001
 0.176068368466783E-007
 0.965768385434234E-011
 0.956057694114359E-011
 0.211495841491363E-008
 0.297784666763846E-002
 0.426129227698490E+001
 0.155842990757062E+001
 0.291290517442412E-004
 0.406455516413258E-011
 0.150508731421441E-001
 0.373045912987510E-002
 0.188847454885957E-010
 0.197906171654247E-009
 0.404303470078367E-004
 0.141700133901696E-009
 0.412327382324312E-009
 0.326822610385018E-008
 0.114440877636866E-010
 0.521299308245686E-001
 0.319417240451413E-008
 0.154524954105504E+002
 0.654010158883245E+001
 0.895704385255013E-009
 0.474947009663062E-008
 0.251056732993233E-008
 0.549986725202506E-006
 0.259115392482538E-007
 0.182032540568568E-008
 0.230391524067415E-003
 0.202959906895111E-008
 0.626345290642665E-001
 0.312667622602185E+001
 0.824304250355917E+001
 0.722599681068266E-011
 0.670963114471087E-011
 0.284695619275993E-001
 0.426990674984995E-011
 0.352960764764282E+000
 0.155619502759228E+000
 0.358171850788062E-001
 0.119845804941161E+000
 0.257139797454217E-002
 0.724145200593039E-002
 0.381761565000632E-011
 0.462941911205236E-011
 0.602732702095539E-011
 0.435305697790196E-011
 0.500286508663360E-011
 0.444197634871607E-011
 0.356030186986812E-011
 0.353561361924975E-011
 0.382537831857906E-011
 0.551204296687349E-011
 0.371044669753678E-011
 0.413148000315130E-011
 0.259633176099350E-010
 0.153289683992793E-010
 0.100559656742768E-010
 0.132583211297295E-010
 0.116227492007226E-009
 0.216572068242792E-010
 0.402780046415803E-010
 0.902534922893858E-011
 0.643581303766276E-010
 0.984891724380297E-011
 0.243884938294837E-010
 0.432630805802773E-011
 0.723654244245326E-011
 0.113658181453865E-010
 0.968488595670335E-011
 0.155962811275154E-010
 0.103867075751493E-010
 0.894477113352530E-011
 0.753790272407863E-011
 0.233978718339573E-010
 0.525334047656211E-011
 0.425775661475351E-011
 0.723600979182662E-011
 0.326638132424785E-011
 0.338955625193937E-011
 0.122802098836856E-010
 0.586795713515635E-011
 0.424838114069119E-011
 0.425763651257877E-011
 0.494316441629531E-011
 0.447740876510464E-011
 0.947673791383145E-011
 0.504651962238688E-011
 0.440126073155212E-011
 0.618976690017067E-011
 0.674423704444656E-011
 0.370840220051748E-011
 0.545889099375008E-011
 0.429309989483440E-011
 0.528257981547893E-011
 0.385060535006151E-011
 0.412889381568102E-011
 0.343569973539361E-011
 0.341380771448251E-011
