# vtk DataFile Version 3.0
Unstructured Grid
ASCII
DATASET UNSTRUCTURED_GRID
FIELD FieldData 1
TIME 1 1 float
  0.275833E+02
POINTS          169 double
 0.000000000000000E+000 0.000000000000000E+000 0.000000000000000E+000
 0.100000000000000E+001 0.000000000000000E+000 0.000000000000000E+000
 0.100000000000000E+001 0.100000000000000E+001 0.000000000000000E+000
 0.000000000000000E+000 0.100000000000000E+001 0.000000000000000E+000
 0.125000000000000E+000 0.250000000000000E+000 0.000000000000000E+000
 0.375000000000000E+000 0.250000000000000E+000 0.000000000000000E+000
 0.375000000000000E+000 0.750000000000000E+000 0.000000000000000E+000
 0.125000000000000E+000 0.750000000000000E+000 0.000000000000000E+000
 0.625000000000000E+000 0.250000000000000E+000 0.000000000000000E+000
 0.875000000000000E+000 0.250000000000000E+000 0.000000000000000E+000
 0.875000000000000E+000 0.750000000000000E+000 0.000000000000000E+000
 0.625000000000000E+000 0.750000000000000E+000 0.000000000000000E+000
 0.100000000000000E+001 0.500000000000000E+000 0.000000000000000E+000
 0.000000000000000E+000 0.500000000000000E+000 0.000000000000000E+000
 0.500000000000000E+000 0.000000000000000E+000 0.000000000000000E+000
 0.125000000000000E+000 0.500000000000000E+000 0.000000000000000E+000
 0.000000000000000E+000 0.750000000000000E+000 0.000000000000000E+000
 0.000000000000000E+000 0.250000000000000E+000 0.000000000000000E+000
 0.000000000000000E+000 0.875000000000000E+000 0.000000000000000E+000
 0.000000000000000E+000 0.125000000000000E+000 0.000000000000000E+000
 0.625000000000000E-001 0.812500000000000E+000 0.000000000000000E+000
 0.125000000000000E+000 0.375000000000000E+000 0.000000000000000E+000
 0.125000000000000E+000 0.625000000000000E+000 0.000000000000000E+000
 0.500000000000000E+000 0.100000000000000E+001 0.000000000000000E+000
 0.250000000000000E+000 0.100000000000000E+001 0.000000000000000E+000
 0.125000000000000E+000 0.100000000000000E+001 0.000000000000000E+000
 0.729166666666667E-001 0.885416666666667E+000 0.000000000000000E+000
 0.000000000000000E+000 0.625000000000000E+000 0.000000000000000E+000
 0.625000000000000E-001 0.562500000000000E+000 0.000000000000000E+000
 0.375000000000000E+000 0.500000000000000E+000 0.000000000000000E+000
 0.375000000000000E+000 0.100000000000000E+001 0.000000000000000E+000
 0.250000000000000E+000 0.000000000000000E+000 0.000000000000000E+000
 0.625000000000000E-001 0.187500000000000E+000 0.000000000000000E+000
 0.143518518518519E+000 0.775462962962963E-001 0.000000000000000E+000
 0.156250000000000E+000 0.156250000000000E+000 0.000000000000000E+000
 0.729166666666667E-001 0.114583333333333E+000 0.000000000000000E+000
 0.125000000000000E+000 0.000000000000000E+000 0.000000000000000E+000
 0.250000000000000E+000 0.250000000000000E+000 0.000000000000000E+000
 0.375000000000000E+000 0.000000000000000E+000 0.000000000000000E+000
 0.187500000000000E+000 0.218750000000000E+000 0.000000000000000E+000
 0.312500000000000E+000 0.762453007518797E-001 0.000000000000000E+000
 0.270259392278489E+000 0.159169301283415E+000 0.000000000000000E+000
 0.365310977506407E+000 0.155367112827996E+000 0.000000000000000E+000
 0.312500000000000E+000 0.216265619131990E+000 0.000000000000000E+000
 0.500000000000000E+000 0.189389379011873E+000 0.000000000000000E+000
 0.426456487258648E+000 0.196919158251449E+000 0.000000000000000E+000
 0.451620395371675E+000 0.941243892751461E-001 0.000000000000000E+000
 0.381804756165356E+000 0.871724813114945E-001 0.000000000000000E+000
 0.437500000000000E+000 0.273708879364394E-001 0.000000000000000E+000
 0.000000000000000E+000 0.375000000000000E+000 0.000000000000000E+000
 0.625000000000000E-001 0.312500000000000E+000 0.000000000000000E+000
 0.250000000000000E+000 0.750000000000000E+000 0.000000000000000E+000
 0.158482142857143E+000 0.851934523809524E+000 0.000000000000000E+000
 0.210861885404568E+000 0.921875000000000E+000 0.000000000000000E+000
 0.136017278952732E+000 0.925863358051789E+000 0.000000000000000E+000
 0.625000000000000E-001 0.687500000000000E+000 0.000000000000000E+000
 0.250000000000000E+000 0.437500000000000E+000 0.000000000000000E+000
 0.247528011619582E+000 0.839830719156545E+000 0.000000000000000E+000
 0.312500000000000E+000 0.796669265575374E+000 0.000000000000000E+000
 0.419664368355990E+000 0.875000000000000E+000 0.000000000000000E+000
 0.313183356674252E+000 0.918387829019328E+000 0.000000000000000E+000
 0.312500000000000E+000 0.100000000000000E+001 0.000000000000000E+000
 0.380617553087688E+000 0.931527612480385E+000 0.000000000000000E+000
 0.187500000000000E+000 0.785936956899548E+000 0.000000000000000E+000
 0.350379273974835E+000 0.857317802397078E+000 0.000000000000000E+000
 0.228046514569416E+000 0.817347524546315E-001 0.000000000000000E+000
 0.187500000000000E+000 0.312500000000000E+000 0.000000000000000E+000
 0.625000000000000E-001 0.437500000000000E+000 0.000000000000000E+000
 0.197916666666667E+000 0.385416666666667E+000 0.000000000000000E+000
 0.375000000000000E+000 0.375000000000000E+000 0.000000000000000E+000
 0.750000000000000E+000 0.000000000000000E+000 0.000000000000000E+000
 0.625000000000000E-001 0.959280303030303E+000 0.000000000000000E+000
 0.234375000000000E+000 0.562500000000000E+000 0.000000000000000E+000
 0.187500000000000E+000 0.687500000000000E+000 0.000000000000000E+000
 0.193892045454545E+000 0.618607954545455E+000 0.000000000000000E+000
 0.375000000000000E+000 0.625000000000000E+000 0.000000000000000E+000
 0.283775504647110E+000 0.640801989544002E+000 0.000000000000000E+000
 0.281298714846257E+000 0.504888901855782E+000 0.000000000000000E+000
 0.331282779604339E+000 0.562500000000000E+000 0.000000000000000E+000
 0.338845441361880E+000 0.687500000000000E+000 0.000000000000000E+000
 0.500000000000000E+000 0.775815254846569E+000 0.000000000000000E+000
 0.625000000000000E-001 0.407196969696970E-001 0.000000000000000E+000
 0.328125000000000E+000 0.437500000000000E+000 0.000000000000000E+000
 0.284143518518519E+000 0.340856481481482E+000 0.000000000000000E+000
 0.312500000000000E+000 0.278356481481482E+000 0.000000000000000E+000
 0.625000000000000E+000 0.500000000000000E+000 0.000000000000000E+000
 0.410581328448014E+000 0.312500000000000E+000 0.000000000000000E+000
 0.543730092976870E+000 0.258404709955172E+000 0.000000000000000E+000
 0.625000000000000E+000 0.375000000000000E+000 0.000000000000000E+000
 0.500000000000000E+000 0.404784409423024E+000 0.000000000000000E+000
 0.590394028376448E+000 0.312500000000000E+000 0.000000000000000E+000
 0.467392923590959E+000 0.261422480241605E+000 0.000000000000000E+000
 0.508234229043035E+000 0.327522431406248E+000 0.000000000000000E+000
 0.625000000000000E+000 0.000000000000000E+000 0.000000000000000E+000
 0.537311919648379E+000 0.110523699730938E+000 0.000000000000000E+000
 0.750000000000000E+000 0.250000000000000E+000 0.000000000000000E+000
 0.593146640296986E+000 0.172723366619635E+000 0.000000000000000E+000
 0.623771215502605E+000 0.890722450407200E-001 0.000000000000000E+000
 0.687500000000000E+000 0.454068088573020E-001 0.000000000000000E+000
 0.793069391389776E+000 0.125000000000000E+000 0.000000000000000E+000
 0.695513657869308E+000 0.162768437982326E+000 0.000000000000000E+000
 0.687500000000000E+000 0.250000000000000E+000 0.000000000000000E+000
 0.875000000000000E+000 0.500000000000000E+000 0.000000000000000E+000
 0.727921748554044E+000 0.101601148842529E+000 0.000000000000000E+000
 0.759582972952604E+000 0.183381972603444E+000 0.000000000000000E+000
 0.875000000000000E+000 0.375000000000000E+000 0.000000000000000E+000
 0.718750000000000E+000 0.343750000000000E+000 0.000000000000000E+000
 0.697916666666667E+000 0.437500000000000E+000 0.000000000000000E+000
 0.750000000000000E+000 0.572048611111111E+000 0.000000000000000E+000
 0.787123226950355E+000 0.408133865248227E+000 0.000000000000000E+000
 0.804687500000000E+000 0.320312500000000E+000 0.000000000000000E+000
 0.700214460784314E+000 0.513965482026144E+000 0.000000000000000E+000
 0.783021635712153E+000 0.493366127722916E+000 0.000000000000000E+000
 0.625000000000000E+000 0.625000000000000E+000 0.000000000000000E+000
 0.848380638879200E+000 0.437500000000000E+000 0.000000000000000E+000
 0.562500000000000E+000 0.404604515401992E-001 0.000000000000000E+000
 0.875000000000000E+000 0.625000000000000E+000 0.000000000000000E+000
 0.750000000000000E+000 0.750000000000000E+000 0.000000000000000E+000
 0.697046765904942E+000 0.621060933265583E+000 0.000000000000000E+000
 0.200520833333333E+000 0.494791666666667E+000 0.000000000000000E+000
 0.429642360217793E+000 0.800955091165693E+000 0.000000000000000E+000
 0.453073336954457E+000 0.687500000000000E+000 0.000000000000000E+000
 0.548183885155829E+000 0.693587592964698E+000 0.000000000000000E+000
 0.750000000000000E+000 0.100000000000000E+001 0.000000000000000E+000
 0.573843760532799E+000 0.437500000000000E+000 0.000000000000000E+000
 0.500000000000000E+000 0.550126792242997E+000 0.000000000000000E+000
 0.511972906944656E+000 0.477455600833011E+000 0.000000000000000E+000
 0.437507615834863E+000 0.452402202857321E+000 0.000000000000000E+000
 0.546458141439317E+000 0.614345103225503E+000 0.000000000000000E+000
 0.571440414895569E+000 0.547357897962524E+000 0.000000000000000E+000
 0.450991397292447E+000 0.610087136082382E+000 0.000000000000000E+000
 0.875000000000000E+000 0.000000000000000E+000 0.000000000000000E+000
 0.100000000000000E+001 0.250000000000000E+000 0.000000000000000E+000
 0.100000000000000E+001 0.375000000000000E+000 0.000000000000000E+000
 0.687500000000000E+000 0.700324699898860E+000 0.000000000000000E+000
 0.812500000000000E+000 0.687500000000000E+000 0.000000000000000E+000
 0.804621866531165E+000 0.617121866531165E+000 0.000000000000000E+000
 0.825181931429427E+000 0.549770415540467E+000 0.000000000000000E+000
 0.100000000000000E+001 0.625000000000000E+000 0.000000000000000E+000
 0.100000000000000E+001 0.750000000000000E+000 0.000000000000000E+000
[...]
CELL_DATA          303
SCALARS tdens double 1
LOOKUP_TABLE default
 0.105376977131995E-007
 0.326724292742142E-007
 0.433505394803054E+000
 0.869255474426771E-008
 0.104963100309336E-007
 0.106346375376956E-007
 0.137978444907397E-007
 0.658683833631055E-007
 0.269101595095287E-002
 0.667246789832483E-008
 0.385241040479564E-007
 0.113786451976588E-007
 0.229178973862475E-007
 0.107293326052624E-001
 0.214168918452191E-007
 0.467811063449796E-001
 0.749895890206319E-008
 0.755902700779777E-008
 0.102574684819028E-007
 0.159889894547065E-005
 0.277671670529363E-007
 0.738806296764447E-008
 0.576663319915167E-001
 0.869520786018344E-008
 0.765431999811576E-008
 0.152719551301620E-007
 0.861396590081648E-008
 0.136996780807478E-001
 0.137915581954350E-007
 0.509566673964469E-007
 0.992126694698908E-008
 0.961346190305236E-008
 0.392617630653193E-002
 0.217281265024213E-007
 0.376331298478970E-007
 0.958216123157878E-008
 0.706574037129683E-008
 0.150736630213070E-007
 0.115208904122665E-007
 0.670042417209462E-008
 0.763508411302089E-008
 0.981678577214602E-008
 0.100745300034237E+001
 0.838010811407247E-005
 0.166162498030546E+000
 0.233337594624748E-007
 0.152664591328016E-007
 0.101197816778280E-007
 0.871924277866922E-008
 0.174335090386481E-007
 0.861114894800241E-008
 0.140381268243713E-007
 0.788605610714106E-008
 0.696950387452532E-008
 0.987010238628429E-008
 0.121529172848231E-007
 0.216437712274494E-007
 0.234855521057781E-007
 0.111002184287099E-006
 0.111232427586271E-006
 0.675035797989863E-007
 0.827723005105514E-008
 0.869526421265721E-007
 0.675245481791002E-007
 0.155148793223283E-007
 0.234032961970468E-007
 0.195714675472506E-007
 0.300197322129851E-005
 0.465610388681763E-007
 0.377590444322878E-007
 0.396105107201500E-007
 0.152634339303201E-007
 0.358523690333614E-007
 0.143168085397349E-006
 0.226195842608560E-007
 0.697493753401075E-008
 0.184392218020652E-007
 0.256594397622858E-007
 0.195833390481395E-007
 0.210040149908428E-007
 0.787856662418112E-008
 0.861971477621873E-008
 0.135597983926525E-007
 0.260387822578478E-007
 0.168029639256343E-007
 0.100803968022765E-007
 0.713008859637057E-002
 0.148454784911476E-007
 0.783426722059112E-008
 0.967663152494935E-008
 0.786161857747441E-008
 0.959768167769639E-008
 0.334401656509544E-001
 0.416083243834048E-002
 0.103820115138681E-006
 0.223889380492574E-007
 0.421127211888111E-007
 0.553194855223680E-007
 0.202756596290846E-007
 0.331991497840025E-007
 0.212748730784388E-007
 0.241060062892671E-007
 0.174540859069205E-007
 0.176342440421460E-007
 0.838833328282666E-007
 0.500096592207928E-007
 0.635025216918258E-007
 0.250959255544132E-007
 0.163585074440811E-007
 0.995555105264974E-001
 0.361566343790486E-001
 0.178112434159197E-007
 0.111162740689999E-001
 0.708618191249262E-001
 0.695456643493194E-001
 0.258250564057286E+000
 0.283435346912554E-007
 0.669694187634262E-008
 0.741257874937213E-008
 0.700427672541985E-004
 0.819650920016198E-008
 0.232176922107818E+000
 0.691382976869186E-001
 0.371948878312047E-002
 0.345030732468270E-002
 0.389859367881085E-005
 0.460301681450272E-001
 0.469668723304655E-001
 0.244617899146205E+000
 0.135335340234241E+000
 0.298643759546575E-004
 0.941178468634397E-002
 0.300637534047513E+000
 0.259458250275570E+001
 0.451150218304877E-001
 0.334322189067270E-002
 0.656856568344539E-005
 0.108713366498220E-006
 0.755234368415799E-008
 0.705795114894829E-008
 0.314131980814306E-003
 0.951409144930008E+000
 0.694701864059122E-002
 0.425746668853521E+001
 0.183392123977147E-002
 0.195093156642993E-001
 0.141725060575263E-005
 0.292891722453594E-006
 0.140587387940778E-004
 0.147157579438068E-006
 0.873396214889772E-007
 0.126899428295573E-005
 0.107010776253917E+002
 0.854368019813878E-002
 0.506693785329191E-004
 0.421438558344595E-002
 0.640087104976261E-004
 0.136949643862801E-005
 0.175414997473534E-005
 0.312574333402732E-005
 0.117565082489464E-005
 0.301981692745759E-005
 0.107410547759752E-007
 0.291437278461328E-007
 0.230372774007254E-007
 0.216340738469842E-007
 0.617278369555556E-007
 0.571464501457381E-007
 0.224471739067204E-007
 0.106739495394324E-006
 0.124751568947396E-007
 0.393283012894156E+000
 0.214396265163062E-007
 0.768084441052616E-008
 0.765875639483917E-007
 0.178805601112640E-007
 0.230472396267226E-007
 0.499479191364494E-007
 0.432392146746036E-002
 0.452534292061681E+001
 0.107375195725964E+000
 0.148442285855922E-007
 0.185166714997880E-007
 0.181452317690249E-007
 0.819154559150756E-007
 0.556743661141639E-005
 0.884611509753684E-001
 0.401978941855890E+000
 0.691386201994603E-008
 0.147738087887307E-007
 0.710737229992502E+000
 0.676656172924449E+000
 0.663413977984851E-001
 0.887026169971471E-004
 0.183984937555283E-002
 0.429295655204302E-001
 0.558267952218267E-001
 0.275114025802525E-004
 0.964024782084179E-002
 0.154256481045635E+000
 0.177834695825731E-001
 0.160159309657190E-007
 0.321915361891339E-006
 0.162006118346687E-001
 0.342804677710279E-004
 0.197723400140866E-007
 0.195740220456494E-007
 0.429144403212292E-005
 0.297964472984946E-002
 0.422466451068587E+001
 0.154846137408237E+001
 0.121981438524647E-001
 0.831716997041473E-008
 0.141800695689551E-001
 0.373431351153428E-002
 0.386423607645499E-007
 0.403766564009365E-006
 0.603015816777273E-001
 0.289245008193073E-006
 0.841470556802246E-006
 0.661953914425234E-005
 0.234346946152904E-007
 0.511256939372240E-001
 0.648358864723755E-005
 0.142384918100757E+002
 0.628354455996079E+001
 0.182175260490347E-005
 0.952141965940412E-005
 0.511032475628042E-005
 0.796719571995009E-003
 0.529010691476373E-004
 0.369505832510318E-005
 0.230573119617361E+000
 0.414178588564281E-005
 0.126379751051131E+000
 0.296971729475463E+001
 0.777829279482316E+001
 0.147966292361949E-007
 0.137402543101403E-007
 0.284598669892603E-001
 0.874311296966795E-008
 0.367647797777356E+000
 0.119146484161842E+000
 0.359290032704949E-001
 0.113538480749233E+000
 0.248883833790669E-002
 0.274750671813891E-001
 0.781835180240883E-008
 0.948054511946008E-008
 0.123426847118487E-007
 0.891457468971210E-008
 0.102452823851547E-007
 0.909679125622420E-008
 0.729136622269585E-008
 0.724080138033227E-008
 0.783422404025408E-008
 0.112866659068948E-007
 0.759817987265705E-008
 0.846040020784634E-008
 0.531062619401072E-007
 0.313746485926174E-007
 0.205869077605203E-007
 0.271370663603954E-007
 0.237307065286356E-006
 0.443244382170436E-007
 0.824168621406487E-007
 0.184788454157021E-007
 0.131512993667544E-006
 0.201635767237797E-007
 0.499091326283975E-007
 0.885976567220172E-008
 0.148182059063576E-007
 0.232667863748339E-007
 0.198278145763022E-007
 0.319191030337878E-007
 0.212649347812411E-007
 0.183150242857428E-007
 0.154347018258231E-007
 0.479012340358751E-007
 0.107579977891638E-007
 0.871796498539933E-008
 0.148077540691200E-007
 0.668949319651729E-008
 0.694094910316040E-008
 0.251445150819548E-007
 0.120167667842373E-007
 0.870026241664308E-008
 0.871924822803067E-008
 0.101229082631766E-007
 0.916914234879597E-008
 0.194062153531335E-007
 0.103345018992814E-007
 0.901330533933605E-008
 0.126746724912107E-007
 0.138109001340963E-007
 0.759458369382088E-008
 0.111778207936845E-007
 0.879176811286021E-008
 0.108177958539249E-007
 0.788574793074414E-008
 0.845558037202541E-008
 0.703618931720209E-008
 0.699136476589576E-008
