# vtk DataFile Version 3.0
Unstructured Grid
ASCII
DATASET UNSTRUCTURED_GRID
FIELD FieldData 1
TIME 1 1 float
  0.325833E+02
POINTS          169 double
 0.000000000000000E+000 0.000000000000000E+000 0.000000000000000E+000
 0.100000000000000E+001 0.000000000000000E+000 0.000000000000000E+000
 0.100000000000000E+001 0.100000000000000E+001 0.000000000000000E+000
 0.000000000000000E+000 0.100000000000000E+001 0.000000000000000E+000
 0.125000000000000E+000 0.250000000000000E+000 0.000000000000000E+000
 0.375000000000000E+000 0.250000000000000E+000 0.000000000000000E+000
 0.375000000000000E+000 0.750000000000000E+000 0.000000000000000E+000
 0.125000000000000E+000 0.750000000000000E+000 0.000000000000000E+000
 0.625000000000000E+000 0.250000000000000E+000 0.000000000000000E+000
 0.875000000000000E+000 0.250000000000000E+000 0.000000000000000E+000
 0.875000000000000E+000 0.750000000000000E+000 0.000000000000000E+000
 0.625000000000000E+000 0.750000000000000E+000 0.000000000000000E+000
 0.100000000000000E+001 0.500000000000000E+000 0.000000000000000E+000
 0.000000000000000E+000 0.500000000000000E+000 0.000000000000000E+000
 0.500000000000000E+000 0.000000000000000E+000 0.000000000000000E+000
 0.125000000000000E+000 0.500000000000000E+000 0.000000000000000E+000
 0.000000000000000E+000 0.750000000000000E+000 0.000000000000000E+000
 0.000000000000000E+000 0.250000000000000E+000 0.000000000000000E+000
 0.000000000000000E+000 0.875000000000000E+000 0.000000000000000E+000
 0.000000000000000E+000 0.125000000000000E+000 0.000000000000000E+000
 0.625000000000000E-001 0.812500000000000E+000 0.000000000000000E+000
 0.125000000000000E+000 0.375000000000000E+000 0.000000000000000E+000
 0.125000000000000E+000 0.625000000000000E+000 0.000000000000000E+000
 0.500000000000000E+000 0.100000000000000E+001 0.000000000000000E+000
 0.250000000000000E+000 0.100000000000000E+001 0.000000000000000E+000
 0.125000000000000E+000 0.100000000000000E+001 0.000000000000000E+000
 0.729166666666667E-001 0.885416666666667E+000 0.000000000000000E+000
 0.000000000000000E+000 0.625000000000000E+000 0.000000000000000E+000
 0.625000000000000E-001 0.562500000000000E+000 0.000000000000000E+000
 0.375000000000000E+000 0.500000000000000E+000 0.000000000000000E+000
 0.375000000000000E+000 0.100000000000000E+001 0.000000000000000E+000
 0.250000000000000E+000 0.000000000000000E+000 0.000000000000000E+000
 0.625000000000000E-001 0.187500000000000E+000 0.000000000000000E+000
 0.143518518518519E+000 0.775462962962963E-001 0.000000000000000E+000
 0.156250000000000E+000 0.156250000000000E+000 0.000000000000000E+000
 0.729166666666667E-001 0.114583333333333E+000 0.000000000000000E+000
 0.125000000000000E+000 0.000000000000000E+000 0.000000000000000E+000
 0.250000000000000E+000 0.250000000000000E+000 0.000000000000000E+000
 0.375000000000000E+000 0.000000000000000E+000 0.000000000000000E+000
 0.187500000000000E+000 0.218750000000000E+000 0.000000000000000E+000
 0.312500000000000E+000 0.762453007518797E-001 0.000000000000000E+000
 0.270259392278489E+000 0.159169301283415E+000 0.000000000000000E+000
 0.365310977506407E+000 0.155367112827996E+000 0.000000000000000E+000
 0.312500000000000E+000 0.216265619131990E+000 0.000000000000000E+000
 0.500000000000000E+000 0.189389379011873E+000 0.000000000000000E+000
 0.426456487258648E+000 0.196919158251449E+000 0.000000000000000E+000
 0.451620395371675E+000 0.941243892751461E-001 0.000000000000000E+000
 0.381804756165356E+000 0.871724813114945E-001 0.000000000000000E+000
 0.437500000000000E+000 0.273708879364394E-001 0.000000000000000E+000
 0.000000000000000E+000 0.375000000000000E+000 0.000000000000000E+000
 0.625000000000000E-001 0.312500000000000E+000 0.000000000000000E+000
 0.250000000000000E+000 0.750000000000000E+000 0.000000000000000E+000
 0.158482142857143E+000 0.851934523809524E+000 0.000000000000000E+000
 0.210861885404568E+000 0.921875000000000E+000 0.000000000000000E+000
 0.136017278952732E+000 0.925863358051789E+000 0.000000000000000E+000
 0.625000000000000E-001 0.687500000000000E+000 0.000000000000000E+000
 0.250000000000000E+000 0.437500000000000E+000 0.000000000000000E+000
 0.247528011619582E+000 0.839830719156545E+000 0.000000000000000E+000
 0.312500000000000E+000 0.796669265575374E+000 0.000000000000000E+000
 0.419664368355990E+000 0.875000000000000E+000 0.000000000000000E+000
 0.313183356674252E+000 0.918387829019328E+000 0.000000000000000E+000
 0.312500000000000E+000 0.100000000000000E+001 0.000000000000000E+000
 0.380617553087688E+000 0.931527612480385E+000 0.000000000000000E+000
 0.187500000000000E+000 0.785936956899548E+000 0.000000000000000E+000
 0.350379273974835E+000 0.857317802397078E+000 0.000000000000000E+000
 0.228046514569416E+000 0.817347524546315E-001 0.000000000000000E+000
 0.187500000000000E+000 0.312500000000000E+000 0.000000000000000E+000
 0.625000000000000E-001 0.437500000000000E+000 0.000000000000000E+000
 0.197916666666667E+000 0.385416666666667E+000 0.000000000000000E+000
 0.375000000000000E+000 0.375000000000000E+000 0.000000000000000E+000
 0.750000000000000E+000 0.000000000000000E+000 0.000000000000000E+000
 0.625000000000000E-001 0.959280303030303E+000 0.000000000000000E+000
 0.234375000000000E+000 0.562500000000000E+000 0.000000000000000E+000
 0.187500000000000E+000 0.687500000000000E+000 0.000000000000000E+000
 0.193892045454545E+000 0.618607954545455E+000 0.000000000000000E+000
 0.375000000000000E+000 0.625000000000000E+000 0.000000000000000E+000
 0.283775504647110E+000 0.640801989544002E+000 0.000000000000000E+000
 0.281298714846257E+000 0.504888901855782E+000 0.000000000000000E+000
 0.331282779604339E+000 0.562500000000000E+000 0.000000000000000E+000
 0.338845441361880E+000 0.687500000000000E+000 0.000000000000000E+000
 0.500000000000000E+000 0.775815254846569E+000 0.000000000000000E+000
 0.625000000000000E-001 0.407196969696970E-001 0.000000000000000E+000
 0.328125000000000E+000 0.437500000000000E+000 0.000000000000000E+000
 0.284143518518519E+000 0.340856481481482E+000 0.000000000000000E+000
 0.312500000000000E+000 0.278356481481482E+000 0.000000000000000E+000
 0.625000000000000E+000 0.500000000000000E+000 0.000000000000000E+000
 0.410581328448014E+000 0.312500000000000E+000 0.000000000000000E+000
 0.543730092976870E+000 0.258404709955172E+000 0.000000000000000E+000
 0.625000000000000E+000 0.375000000000000E+000 0.000000000000000E+000
 0.500000000000000E+000 0.404784409423024E+000 0.000000000000000E+000
 0.590394028376448E+000 0.312500000000000E+000 0.000000000000000E+000
 0.467392923590959E+000 0.261422480241605E+000 0.000000000000000E+000
 0.508234229043035E+000 0.327522431406248E+000 0.000000000000000E+000
 0.625000000000000E+000 0.000000000000000E+000 0.000000000000000E+000
 0.537311919648379E+000 0.110523699730938E+000 0.000000000000000E+000
 0.750000000000000E+000 0.250000000000000E+000 0.000000000000000E+000
 0.593146640296986E+000 0.172723366619635E+000 0.000000000000000E+000
 0.623771215502605E+000 0.890722450407200E-001 0.000000000000000E+000
 0.687500000000000E+000 0.454068088573020E-001 0.000000000000000E+000
 0.793069391389776E+000 0.125000000000000E+000 0.000000000000000E+000
 0.695513657869308E+000 0.162768437982326E+000 0.000000000000000E+000
 0.687500000000000E+000 0.250000000000000E+000 0.000000000000000E+000
 0.875000000000000E+000 0.500000000000000E+000 0.000000000000000E+000
 0.727921748554044E+000 0.101601148842529E+000 0.000000000000000E+000
 0.759582972952604E+000 0.183381972603444E+000 0.000000000000000E+000
 0.875000000000000E+000 0.375000000000000E+000 0.000000000000000E+000
 0.718750000000000E+000 0.343750000000000E+000 0.000000000000000E+000
 0.697916666666667E+000 0.437500000000000E+000 0.000000000000000E+000
 0.750000000000000E+000 0.572048611111111E+000 0.000000000000000E+000
 0.787123226950355E+000 0.408133865248227E+000 0.000000000000000E+000
 0.804687500000000E+000 0.320312500000000E+000 0.000000000000000E+000
 0.700214460784314E+000 0.513965482026144E+000 0.000000000000000E+000
 0.783021635712153E+000 0.493366127722916E+000 0.000000000000000E+000
 0.625000000000000E+000 0.625000000000000E+000 0.000000000000000E+000
 0.848380638879200E+000 0.437500000000000E+000 0.000000000000000E+000
 0.562500000000000E+000 0.404604515401992E-001 0.000000000000000E+000
 0.875000000000000E+000 0.625000000000000E+000 0.000000000000000E+000
 0.750000000000000E+000 0.750000000000000E+000 0.000000000000000E+000
 0.697046765904942E+000 0.621060933265583E+000 0.000000000000000E+000
 0.200520833333333E+000 0.494791666666667E+000 0.000000000000000E+000
 0.429642360217793E+000 0.800955091165693E+000 0.000000000000000E+000
 0.453073336954457E+000 0.687500000000000E+000 0.000000000000000E+000
 0.548183885155829E+000 0.693587592964698E+000 0.000000000000000E+000
 0.750000000000000E+000 0.100000000000000E+001 0.000000000000000E+000
 0.573843760532799E+000 0.437500000000000E+000 0.000000000000000E+000
 0.500000000000000E+000 0.550126792242997E+000 0.000000000000000E+000
 0.511972906944656E+000 0.477455600833011E+000 0.000000000000000E+000
 0.437507615834863E+000 0.452402202857321E+000 0.000000000000000E+000
 0.546458141439317E+000 0.614345103225503E+000 0.000000000000000E+000
 0.571440414895569E+000 0.547357897962524E+000 0.000000000000000E+000
 0.450991397292447E+000 0.610087136082382E+000 0.000000000000000E+000
 0.875000000000000E+000 0.000000000000000E+000 0.000000000000000E+000
 0.100000000000000E+001 0.250000000000000E+000 0.000000000000000E+000
 0.100000000000000E+001 0.375000000000000E+000 0.000000000000000E+000
 0.687500000000000E+000 0.700324699898860E+000 0.000000000000000E+000
 0.812500000000000E+000 0.687500000000000E+000 0.000000000000000E+000
 0.804621866531165E+000 0.617121866531165E+000 0.000000000000000E+000
 0.825181931429427E+000 0.549770415540467E+000 0.000000000000000E+000
 0.100000000000000E+001 0.625000000000000E+000 0.000000000000000E+000
 0.100000000000000E+001 0.750000000000000E+000 0.000000000000000E+000
[...]
CELL_DATA          303
SCALARS tdens double 1
LOOKUP_TABLE default
 0.329327173843452E-009
 0.102171923846016E-008
 0.411559587871947E+000
 0.271681930835454E-009
 0.328029568036126E-009
 0.332351914505720E-009
 0.431228603926609E-009
 0.206072864645718E-008
 0.268771085115286E-002
 0.208516906702677E-009
 0.120487243687125E-008
 0.355605722235281E-009
 0.716385560519672E-009
 0.150689288796217E-001
 0.669505076284848E-009
 0.193298036932699E-001
 0.234383210687513E-009
 0.236223650665112E-009
 0.320829814993465E-009
 0.502345023809884E-007
 0.867925057629845E-009
 0.230920543439314E-009
 0.583960065975747E-001
 0.271734762001637E-009
 0.239244160694798E-009
 0.477286059688121E-009
 0.269194054277782E-009
 0.151691893395492E-001
 0.431231021876537E-009
 0.159271942403820E-008
 0.310053735940382E-009
 0.300444822492516E-009
 0.391163491766668E-002
 0.679042577663020E-009
 0.117690744662472E-008
 0.299454294957584E-009
 0.220806816188302E-009
 0.471081969203463E-009
 0.360047337180431E-009
 0.209389067410222E-009
 0.238637764292226E-009
 0.307073493021773E-009
 0.124821425167015E+001
 0.266222056610194E-006
 0.156816065254484E+000
 0.729466505756070E-009
 0.477137430551837E-009
 0.316259508606915E-009
 0.272486693478421E-009
 0.544878495570216E-009
 0.269107614562419E-009
 0.438739083789177E-009
 0.246445122379253E-009
 0.217799343069658E-009
 0.308455345495757E-009
 0.379801110621222E-009
 0.676609780810347E-009
 0.733965663937480E-009
 0.347632470594338E-008
 0.348213935352245E-008
 0.211232430510005E-008
 0.258670755704651E-009
 0.271869196226016E-008
 0.211258046485850E-008
 0.484918008554330E-009
 0.731548617303551E-009
 0.611787500130794E-009
 0.947085206633669E-007
 0.145576848635132E-008
 0.118044972394422E-008
 0.123892791975142E-008
 0.477045001355200E-009
 0.112123868987863E-008
 0.448613540626614E-008
 0.707108409024248E-009
 0.217968867278701E-009
 0.576362712667386E-009
 0.802237370726024E-009
 0.612160778277757E-009
 0.656599351642066E-009
 0.246209554409853E-009
 0.269409927869774E-009
 0.423956518281107E-009
 0.813798457262091E-009
 0.525163038330854E-009
 0.315024959951254E-009
 0.794756236606851E-002
 0.463985054041312E-009
 0.244826055666079E-009
 0.302406384958276E-009
 0.245680493571404E-009
 0.299958213928024E-009
 0.290399839495177E-001
 0.410666627240081E-002
 0.325038202968819E-008
 0.699814765078997E-009
 0.131654319925459E-008
 0.173056051004541E-008
 0.633809403989049E-009
 0.103784838390230E-008
 0.665043185810227E-009
 0.753626321436114E-009
 0.545554032608899E-009
 0.551189649978012E-009
 0.262224888942506E-008
 0.156306392691660E-008
 0.198664598146745E-008
 0.784584761190484E-009
 0.511245183868919E-009
 0.997737669556787E-001
 0.360780630696457E-001
 0.556704498401293E-009
 0.137738517642671E-001
 0.706936541424258E-001
 0.724463457031500E-001
 0.267580798294408E+000
 0.886173206841675E-009
 0.209281681951197E-009
 0.231680550829160E-009
 0.229730557971158E-005
 0.256147092292581E-009
 0.218759426846429E+000
 0.695265963348573E-001
 0.371702539509675E-002
 0.357575681428020E-002
 0.122063276919061E-006
 0.218615754730873E-001
 0.832033815906511E-002
 0.133783982959744E+000
 0.127935730752581E+000
 0.980873293249125E-006
 0.970076510753910E-002
 0.937701028879760E-001
 0.322346985380896E+001
 0.455852254925791E-001
 0.332884815176055E-002
 0.207258093308589E-006
 0.340277246640937E-008
 0.236015387945198E-009
 0.220563603434762E-009
 0.118095263852181E-004
 0.111056353430708E+001
 0.516990630937151E-002
 0.447206365177412E+001
 0.248388229455271E-002
 0.192416077722672E-001
 0.445270506685029E-007
 0.917893872931889E-008
 0.447417701617680E-006
 0.461000901932807E-008
 0.273404953522823E-008
 0.400059661884893E-007
 0.112886912743066E+002
 0.861900301224663E-002
 0.158703765926006E-005
 0.507398693026183E-003
 0.210223742572588E-005
 0.431035027391863E-007
 0.553317316608238E-007
 0.987226263649003E-007
 0.369725911267442E-007
 0.951043183490355E-007
 0.335675027795931E-009
 0.911060663789348E-009
 0.720210567282807E-009
 0.676297369710480E-009
 0.193085346544175E-008
 0.178721849150250E-008
 0.701718423017009E-009
 0.334224842455131E-008
 0.389876614085535E-009
 0.397583917512731E+000
 0.670121143130240E-009
 0.240031442554745E-009
 0.239443650942001E-008
 0.558858977484449E-009
 0.720308581531082E-009
 0.156171585713164E-008
 0.431872392500082E-002
 0.485907219040852E+001
 0.108498596277791E+000
 0.463933355075575E-009
 0.578687026399364E-009
 0.567080597321545E-009
 0.257164489638200E-008
 0.177502768857850E-006
 0.882179206669472E-001
 0.381349285633267E+000
 0.216067612231764E-009
 0.461977062436160E-009
 0.885241000754993E+000
 0.887016407963698E+000
 0.665799247685220E-001
 0.298113786088153E-005
 0.905095551399264E-004
 0.429731788682697E-001
 0.548652031427510E-001
 0.878931204800019E-006
 0.206302826268473E-001
 0.156059734812129E+000
 0.168954662457856E-001
 0.500557399983494E-009
 0.100902785276884E-007
 0.165917919220056E-001
 0.111784899759145E-005
 0.618059764565257E-009
 0.611847567879230E-009
 0.135161494766933E-006
 0.297837934453666E-002
 0.433437213080399E+001
 0.161839106369190E+001
 0.143333029922983E-002
 0.260096792606045E-009
 0.148445484952623E-001
 0.373214041217797E-002
 0.120845769697210E-008
 0.126583521485107E-007
 0.246680123864999E-002
 0.906408409051687E-008
 0.263742469251129E-007
 0.208800714811752E-006
 0.732407755009537E-009
 0.517965188631192E-001
 0.204097405832213E-006
 0.150744521628534E+002
 0.662836534176774E+001
 0.572614836409842E-007
 0.302842186751524E-006
 0.160528493397523E-006
 0.333588071855538E-004
 0.165750482642238E-005
 0.116337629555554E-006
 0.130308884294588E-001
 0.129819686616881E-006
 0.717629469725283E-001
 0.310423140416552E+001
 0.836618190682657E+001
 0.462452882744078E-009
 0.429411180232629E-009
 0.284638410056683E-001
 0.273265868894557E-009
 0.354569953144296E+000
 0.133616129408505E+000
 0.358290535039550E-001
 0.116241012583348E+000
 0.254019934399971E-002
 0.213067488647500E-001
 0.244326815400655E-009
 0.296280341236770E-009
 0.385742594269549E-009
 0.278593236831340E-009
 0.320180506645759E-009
 0.284284644406840E-009
 0.227858672291086E-009
 0.226278606248690E-009
 0.244823460547460E-009
 0.352760837125700E-009
 0.237464602462431E-009
 0.264410462256478E-009
 0.166132367951013E-008
 0.980959821050921E-009
 0.643543873828290E-009
 0.848453773796092E-009
 0.743497044886177E-008
 0.138591551502998E-008
 0.257743171093657E-008
 0.577597326162363E-009
 0.411747396410111E-008
 0.630296143654201E-009
 0.156067351692114E-008
 0.276881223110072E-009
 0.463127681938450E-009
 0.727361014337508E-009
 0.619799013276770E-009
 0.998053047372668E-009
 0.664714525443491E-009
 0.572446253229641E-009
 0.482411340459548E-009
 0.149737639770689E-008
 0.336209615168309E-009
 0.272486891708477E-009
 0.463046937983288E-009
 0.209048044257715E-009
 0.216927048308950E-009
 0.785907014762895E-009
 0.375545290335799E-009
 0.271894306936508E-009
 0.272486808836257E-009
 0.316359110833461E-009
 0.286551255817728E-009
 0.606500586246270E-009
 0.322973446669431E-009
 0.281678329441376E-009
 0.396135336829436E-009
 0.431624745560942E-009
 0.237336633934835E-009
 0.349359223217799E-009
 0.274755949501945E-009
 0.338080515951168E-009
 0.246437302970373E-009
 0.264247256196862E-009
 0.219884172662309E-009
 0.218483133356881E-009
