# vtk DataFile Version 3.0
Unstructured Grid
ASCII
DATASET UNSTRUCTURED_GRID
FIELD FieldData 1
TIME 1 1 float
  0.195833E+02
POINTS          169 double
 0.000000000000000E+000 0.000000000000000E+000 0.000000000000000E+000
 0.100000000000000E+001 0.000000000000000E+000 0.000000000000000E+000
 0.100000000000000E+001 0.100000000000000E+001 0.000000000000000E+000
 0.000000000000000E+000 0.100000000000000E+001 0.000000000000000E+000
 0.125000000000000E+000 0.250000000000000E+000 0.000000000000000E+000
 0.375000000000000E+000 0.250000000000000E+000 0.000000000000000E+000
 0.375000000000000E+000 0.750000000000000E+000 0.000000000000000E+000
 0.125000000000000E+000 0.750000000000000E+000 0.000000000000000E+000
 0.625000000000000E+000 0.250000000000000E+000 0.000000000000000E+000
 0.875000000000000E+000 0.250000000000000E+000 0.000000000000000E+000
 0.875000000000000E+000 0.750000000000000E+000 0.000000000000000E+000
 0.625000000000000E+000 0.750000000000000E+000 0.000000000000000E+000
 0.100000000000000E+001 0.500000000000000E+000 0.000000000000000E+000
 0.000000000000000E+000 0.500000000000000E+000 0.000000000000000E+000
 0.500000000000000E+000 0.000000000000000E+000 0.000000000000000E+000
 0.125000000000000E+000 0.500000000000000E+000 0.000000000000000E+000
 0.000000000000000E+000 0.750000000000000E+000 0.000000000000000E+000
 0.000000000000000E+000 0.250000000000000E+000 0.000000000000000E+000
 0.000000000000000E+000 0.875000000000000E+000 0.000000000000000E+000
 0.000000000000000E+000 0.125000000000000E+000 0.000000000000000E+000
 0.625000000000000E-001 0.812500000000000E+000 0.000000000000000E+000
 0.125000000000000E+000 0.375000000000000E+000 0.000000000000000E+000
 0.125000000000000E+000 0.625000000000000E+000 0.000000000000000E+000
 0.500000000000000E+000 0.100000000000000E+001 0.000000000000000E+000
 0.250000000000000E+000 0.100000000000000E+001 0.000000000000000E+000
 0.125000000000000E+000 0.100000000000000E+001 0.000000000000000E+000
 0.729166666666667E-001 0.885416666666667E+000 0.000000000000000E+000
 0.000000000000000E+000 0.625000000000000E+000 0.000000000000000E+000
 0.625000000000000E-001 0.562500000000000E+000 0.000000000000000E+000
 0.375000000000000E+000 0.500000000000000E+000 0.000000000000000E+000
 0.375000000000000E+000 0.100000000000000E+001 0.000000000000000E+000
 0.250000000000000E+000 0.000000000000000E+000 0.000000000000000E+000
 0.625000000000000E-001 0.187500000000000E+000 0.000000000000000E+000
 0.143518518518519E+000 0.775462962962963E-001 0.000000000000000E+000
 0.156250000000000E+000 0.156250000000000E+000 0.000000000000000E+000
 0.729166666666667E-001 0.114583333333333E+000 0.000000000000000E+000
 0.125000000000000E+000 0.000000000000000E+000 0.000000000000000E+000
 0.250000000000000E+000 0.250000000000000E+000 0.000000000000000E+000
 0.375000000000000E+000 0.000000000000000E+000 0.000000000000000E+000
 0.187500000000000E+000 0.218750000000000E+000 0.000000000000000E+000
 0.312500000000000E+000 0.762453007518797E-001 0.000000000000000E+000
 0.270259392278489E+000 0.159169301283415E+000 0.000000000000000E+000
 0.365310977506407E+000 0.155367112827996E+000 0.000000000000000E+000
 0.312500000000000E+000 0.216265619131990E+000 0.000000000000000E+000
 0.500000000000000E+000 0.189389379011873E+000 0.000000000000000E+000
 0.426456487258648E+000 0.196919158251449E+000 0.000000000000000E+000
 0.451620395371675E+000 0.941243892751461E-001 0.000000000000000E+000
 0.381804756165356E+000 0.871724813114945E-001 0.000000000000000E+000
 0.437500000000000E+000 0.273708879364394E-001 0.000000000000000E+000
 0.000000000000000E+000 0.375000000000000E+000 0.000000000000000E+000
 0.625000000000000E-001 0.312500000000000E+000 0.000000000000000E+000
 0.250000000000000E+000 0.750000000000000E+000 0.000000000000000E+000
 0.158482142857143E+000 0.851934523809524E+000 0.000000000000000E+000
 0.210861885404568E+000 0.921875000000000E+000 0.000000000000000E+000
 0.136017278952732E+000 0.925863358051789E+000 0.000000000000000E+000
 0.625000000000000E-001 0.687500000000000E+000 0.000000000000000E+000
 0.250000000000000E+000 0.437500000000000E+000 0.000000000000000E+000
 0.247528011619582E+000 0.839830719156545E+000 0.000000000000000E+000
 0.312500000000000E+000 0.796669265575374E+000 0.000000000000000E+000
 0.419664368355990E+000 0.875000000000000E+000 0.000000000000000E+000
 0.313183356674252E+000 0.918387829019328E+000 0.000000000000000E+000
 0.312500000000000E+000 0.100000000000000E+001 0.000000000000000E+000
 0.380617553087688E+000 0.931527612480385E+000 0.000000000000000E+000
 0.187500000000000E+000 0.785936956899548E+000 0.000000000000000E+000
 0.350379273974835E+000 0.857317802397078E+000 0.000000000000000E+000
 0.228046514569416E+000 0.817347524546315E-001 0.000000000000000E+000
 0.187500000000000E+000 0.312500000000000E+000 0.000000000000000E+000
 0.625000000000000E-001 0.437500000000000E+000 0.000000000000000E+000
 0.197916666666667E+000 0.385416666666667E+000 0.000000000000000E+000
 0.375000000000000E+000 0.375000000000000E+000 0.000000000000000E+000
 0.750000000000000E+000 0.000000000000000E+000 0.000000000000000E+000
 0.625000000000000E-001 0.959280303030303E+000 0.000000000000000E+000
 0.234375000000000E+000 0.562500000000000E+000 0.000000000000000E+000
 0.187500000000000E+000 0.687500000000000E+000 0.000000000000000E+000
 0.193892045454545E+000 0.618607954545455E+000 0.000000000000000E+000
 0.375000000000000E+000 0.625000000000000E+000 0.000000000000000E+000
 0.283775504647110E+000 0.640801989544002E+000 0.000000000000000E+000
 0.281298714846257E+000 0.504888901855782E+000 0.000000000000000E+000
 0.331282779604339E+000 0.562500000000000E+000 0.000000000000000E+000
 0.338845441361880E+000 0.687500000000000E+000 0.000000000000000E+000
 0.500000000000000E+000 0.775815254846569E+000 0.000000000000000E+000
 0.625000000000000E-001 0.407196969696970E-001 0.000000000000000E+000
 0.328125000000000E+000 0.437500000000000E+000 0.000000000000000E+000
 0.284143518518519E+000 0.340856481481482E+000 0.000000000000000E+000
 0.312500000000000E+000 0.278356481481482E+000 0.000000000000000E+000
 0.625000000000000E+000 0.500000000000000E+000 0.000000000000000E+000
 0.410581328448014E+000 0.312500000000000E+000 0.000000000000000E+000
 0.543730092976870E+000 0.258404709955172E+000 0.000000000000000E+000
 0.625000000000000E+000 0.375000000000000E+000 0.000000000000000E+000
 0.500000000000000E+000 0.404784409423024E+000 0.000000000000000E+000
 0.590394028376448E+000 0.312500000000000E+000 0.000000000000000E+000
 0.467392923590959E+000 0.261422480241605E+000 0.000000000000000E+000
 0.508234229043035E+000 0.327522431406248E+000 0.000000000000000E+000
 0.625000000000000E+000 0.000000000000000E+000 0.000000000000000E+000
 0.537311919648379E+000 0.110523699730938E+000 0.000000000000000E+000
 0.750000000000000E+000 0.250000000000000E+000 0.000000000000000E+000
 0.593146640296986E+000 0.172723366619635E+000 0.000000000000000E+000
 0.623771215502605E+000 0.890722450407200E-001 0.000000000000000E+000
 0.687500000000000E+000 0.454068088573020E-001 0.000000000000000E+000
 0.793069391389776E+000 0.125000000000000E+000 0.000000000000000E+000
 0.695513657869308E+000 0.162768437982326E+000 0.000000000000000E+000
 0.687500000000000E+000 0.250000000000000E+000 0.000000000000000E+000
 0.875000000000000E+000 0.500000000000000E+000 0.000000000000000E+000
 0.727921748554044E+000 0.101601148842529E+000 0.000000000000000E+000
 0.759582972952604E+000 0.183381972603444E+000 0.000000000000000E+000
 0.875000000000000E+000 0.375000000000000E+000 0.000000000000000E+000
 0.718750000000000E+000 0.343750000000000E+000 0.000000000000000E+000
 0.697916666666667E+000 0.437500000000000E+000 0.000000000000000E+000
 0.750000000000000E+000 0.572048611111111E+000 0.000000000000000E+000
 0.787123226950355E+000 0.408133865248227E+000 0.000000000000000E+000
 0.804687500000000E+000 0.320312500000000E+000 0.000000000000000E+000
 0.700214460784314E+000 0.513965482026144E+000 0.000000000000000E+000
 0.783021635712153E+000 0.493366127722916E+000 0.000000000000000E+000
 0.625000000000000E+000 0.625000000000000E+000 0.000000000000000E+000
 0.848380638879200E+000 0.437500000000000E+000 0.000000000000000E+000
 0.562500000000000E+000 0.404604515401992E-001 0.000000000000000E+000
 0.875000000000000E+000 0.625000000000000E+000 0.000000000000000E+000
 0.750000000000000E+000 0.750000000000000E+000 0.000000000000000E+000
 0.697046765904942E+000 0.621060933265583E+000 0.000000000000000E+000
 0.200520833333333E+000 0.494791666666667E+000 0.000000000000000E+000
 0.429642360217793E+000 0.800955091165693E+000 0.000000000000000E+000
 0.453073336954457E+000 0.687500000000000E+000 0.000000000000000E+000
 0.548183885155829E+000 0.693587592964698E+000 0.000000000000000E+000
 0.750000000000000E+000 0.100000000000000E+001 0.000000000000000E+000
 0.573843760532799E+000 0.437500000000000E+000 0.000000000000000E+000
 0.500000000000000E+000 0.550126792242997E+000 0.000000000000000E+000
 0.511972906944656E+000 0.477455600833011E+000 0.000000000000000E+000
 0.437507615834863E+000 0.452402202857321E+000 0.000000000000000E+000
 0.546458141439317E+000 0.614345103225503E+000 0.000000000000000E+000
 0.571440414895569E+000 0.547357897962524E+000 0.000000000000000E+000
 0.450991397292447E+000 0.610087136082382E+000 0.000000000000000E+000
 0.875000000000000E+000 0.000000000000000E+000 0.000000000000000E+000
 0.100000000000000E+001 0.250000000000000E+000 0.000000000000000E+000
 0.100000000000000E+001 0.375000000000000E+000 0.000000000000000E+000
 0.687500000000000E+000 0.700324699898860E+000 0.000000000000000E+000
 0.812500000000000E+000 0.687500000000000E+000 0.000000000000000E+000
 0.804621866531165E+000 0.617121866531165E+000 0.000000000000000E+000
 0.825181931429427E+000 0.549770415540467E+000 0.000000000000000E+000
 0.100000000000000E+001 0.625000000000000E+000 0.000000000000000E+000
 0.100000000000000E+001 0.750000000000000E+000 0.000000000000000E+000
[...]
CELL_DATA          303
SCALARS tdens double 1
LOOKUP_TABLE default
 0.269410712340247E-005
 0.825387847439861E-005
 0.410208371908708E+000
 0.221927651707932E-005
 0.268401568466634E-005
 0.271906017756630E-005
 0.352454075359683E-005
 0.165026524363224E-004
 0.315225255919844E-002
 0.170774422095251E-005
 0.970658853410037E-005
 0.290932635198106E-005
 0.583735265433945E-005
 0.229548075015722E-001
 0.544674971587464E-005
 0.383216549261319E+000
 0.191414619023761E-005
 0.193438127326682E-005
 0.258339504982034E-005
 0.367221060219009E-003
 0.707879796529933E-005
 0.188522054588919E-005
 0.441439586046085E-001
 0.222450261454490E-005
 0.195232935305580E-005
 0.390268967413037E-005
 0.220382500738814E-005
 0.161380777726462E-001
 0.349622936067051E-005
 0.129970535325277E-004
 0.253768589489762E-005
 0.245758787257683E-005
 0.401506504521947E-002
 0.555321335683598E-005
 0.949588375708287E-005
 0.245089232371891E-005
 0.180838876504959E-005
 0.385257304467741E-005
 0.294570145180111E-005
 0.171520728201491E-005
 0.194885761763245E-005
 0.247207818657166E-005
 0.477894256914211E+000
 0.157525043750906E-002
 0.212833991528850E+000
 0.592801692513640E-005
 0.389924444028813E-005
 0.258821551365064E-005
 0.223059747589131E-005
 0.445006663474938E-005
 0.220307390504284E-005
 0.358624843654126E-005
 0.201793071229791E-005
 0.178383743558544E-005
 0.252446804359136E-005
 0.310765206377796E-005
 0.550278066484435E-005
 0.600581555086315E-005
 0.272710867182557E-004
 0.275411288704626E-004
 0.168404962254775E-004
 0.211785637409162E-005
 0.220524342720727E-004
 0.169069878543905E-004
 0.395950456853878E-005
 0.596024710315391E-005
 0.498210872063382E-005
 0.639031340717437E-003
 0.118064978083059E-004
 0.959042186424849E-005
 0.996910789263801E-005
 0.389778880025033E-005
 0.904517001531273E-005
 0.348112970996388E-004
 0.575183036669076E-005
 0.178521222403475E-005
 0.469883738997995E-005
 0.650920540752749E-005
 0.498481023854036E-005
 0.534186756232242E-005
 0.201626945563944E-005
 0.220004906896550E-005
 0.344040985548591E-005
 0.664604857796182E-005
 0.428993572562441E-005
 0.257822311823275E-005
 0.104318900682754E-001
 0.378995194988116E-005
 0.200462579334206E-005
 0.247502352313348E-005
 0.201204097789075E-005
 0.245312763250159E-005
 0.393181950736744E-001
 0.407137203413451E-002
 0.258074557957757E-004
 0.570641371933936E-005
 0.107133584898806E-004
 0.138694950028271E-004
 0.515966779772486E-005
 0.844340473018601E-005
 0.541451411889443E-005
 0.612162511275305E-005
 0.445006863457189E-005
 0.449521842197406E-005
 0.212699189370109E-004
 0.127435634107970E-004
 0.159486765632130E-004
 0.637223214780437E-005
 0.418116061750438E-005
 0.955896391428157E-001
 0.357339562142508E-001
 0.454370862384645E-005
 0.228674015357636E-001
 0.712010519172658E-001
 0.588437204045557E-001
 0.261368490342469E+000
 0.718722896787293E-005
 0.171404598012688E-005
 0.189215876901647E-005
 0.753924231152714E-002
 0.209717229274738E-005
 0.208485951858203E+000
 0.719560858492858E-001
 0.408033737051178E-002
 0.340221943525813E-002
 0.965687067589753E-003
 0.163261866976346E+000
 0.233200600660313E+000
 0.552960362547957E+000
 0.133743082698135E+000
 0.422174262471941E-002
 0.245825163614757E-001
 0.685038258812163E+000
 0.194639629095499E+001
 0.343470685390908E-001
 0.378840268779255E-002
 0.139316114335222E-002
 0.269964516041826E-004
 0.193269670880872E-005
 0.180643326631918E-005
 0.116911098070769E-001
 0.565514978400592E+000
 0.173706256655857E-001
 0.348815289805232E+001
 0.141898611863180E-002
 0.172482975125110E-001
 0.328353790936258E-003
 0.708869381541031E-004
 0.257620252368234E-002
 0.359424630927100E-004
 0.216342687188272E-004
 0.276388960744338E-003
 0.888111383322976E+001
 0.698750934857143E-002
 0.123841016797641E-001
 0.470695216428598E-001
 0.690444959567598E-002
 0.307286283694092E-003
 0.377036611463259E-003
 0.655550354778088E-003
 0.266500709517685E-003
 0.670606805772605E-003
 0.274714100444123E-005
 0.741070417654487E-005
 0.585117535646400E-005
 0.550189646023744E-005
 0.154883857115476E-004
 0.144082771843658E-004
 0.570823127508703E-005
 0.262880184784684E-004
 0.318940679028574E-005
 0.387984876968995E+000
 0.546813960153574E-005
 0.196553674189991E-005
 0.194479645131767E-004
 0.456333959966695E-005
 0.588802204834347E-005
 0.126747509495977E-004
 0.439436545329273E-002
 0.352266993484240E+001
 0.103028754628440E+000
 0.379229639546756E-005
 0.473413593438182E-005
 0.463885393749898E-005
 0.194188216902825E-004
 0.104244964780897E-002
 0.758186180680606E-001
 0.423942179364422E+000
 0.176846238222806E-005
 0.373899191816854E-005
 0.355218172169698E+000
 0.279129080649344E+000
 0.665327189974978E-001
 0.535364272005035E-002
 0.498873669269549E-001
 0.424666001392867E-001
 0.647190883648019E-001
 0.442175853764097E-002
 0.178591376946737E+000
 0.987364127832276E-001
 0.248456098116177E-001
 0.409104396734054E-005
 0.776456818661750E-004
 0.472205067243709E-002
 0.346080532238201E-002
 0.503447895623548E-005
 0.498605946137207E-005
 0.920352975260583E-003
 0.325981016896529E-002
 0.205502729619256E+001
 0.615933419573081E+000
 0.332841529474998E+000
 0.210275601753430E-005
 0.140528603572603E-001
 0.382876471035290E-002
 0.975622833389990E-005
 0.969350696600538E-004
 0.831669975513202E+000
 0.700695970302766E-004
 0.203279173844211E-003
 0.140852035468075E-002
 0.598795560202625E-005
 0.488560811196439E-001
 0.155864623399294E-002
 0.117993845150718E+002
 0.401618985021776E+001
 0.417619934594467E-003
 0.213964501402170E-002
 0.122169452227571E-002
 0.296649747748443E-001
 0.128914775866626E-001
 0.817059125520758E-003
 0.166440120003655E+001
 0.102394342827765E-002
 0.630075079614730E+000
 0.212781254093489E+001
 0.473290011813198E+001
 0.377923787937369E-005
 0.351326071242672E-005
 0.249610997704221E-001
 0.223179886534247E-005
 0.410783733848057E+000
 0.928708441711889E-001
 0.362840060789608E-001
 0.822795434340910E-001
 0.248690376740890E-002
 0.260219780816936E-001
 0.200078235254014E-005
 0.242502233434994E-005
 0.315451023010409E-005
 0.228022356325261E-005
 0.262046039074735E-005
 0.232728530216131E-005
 0.186606672254021E-005
 0.185310994993834E-005
 0.200500083767734E-005
 0.288183553824457E-005
 0.194102266216269E-005
 0.215808757994908E-005
 0.133148150859409E-004
 0.795355646250142E-005
 0.523805083741545E-005
 0.688046416661972E-005
 0.577333623424693E-004
 0.112277973868561E-004
 0.208219712816022E-004
 0.470969929191128E-005
 0.325992051825247E-004
 0.513282611366549E-005
 0.126288001750382E-004
 0.226571957500240E-005
 0.378433232708488E-005
 0.591304222477188E-005
 0.504752278304618E-005
 0.807942673046940E-005
 0.541494180307185E-005
 0.467283626319299E-005
 0.393927055499938E-005
 0.121954244252316E-004
 0.275063082222224E-005
 0.222528574799680E-005
 0.374814517360761E-005
 0.171230075619133E-005
 0.177360900373459E-005
 0.641590998109069E-005
 0.307308948182579E-005
 0.222559169537083E-005
 0.223058200381345E-005
 0.258873370954945E-005
 0.234482482326932E-005
 0.495935633506651E-005
 0.264249540867880E-005
 0.230546783145177E-005
 0.323677883023954E-005
 0.353033706878573E-005
 0.194329836796995E-005
 0.285306016580113E-005
 0.224851044426290E-005
 0.276561149499164E-005
 0.201754886424020E-005
 0.216302176926324E-005
 0.180075457501119E-005
 0.178932541657016E-005
