# vtk DataFile Version 3.0
Unstructured Grid
ASCII
DATASET UNSTRUCTURED_GRID
FIELD FieldData 1
TIME 1 1 float
  0.355833E+02
POINTS          169 double
 0.000000000000000E+000 0.000000000000000E+000 0.000000000000000E+000
 0.100000000000000E+001 0.000000000000000E+000 0.000000000000000E+000
 0.100000000000000E+001 0.100000000000000E+001 0.000000000000000E+000
 0.000000000000000E+000 0.100000000000000E+001 0.000000000000000E+000
 0.125000000000000E+000 0.250000000000000E+000 0.000000000000000E+000
 0.375000000000000E+000 0.250000000000000E+000 0.000000000000000E+000
 0.375000000000000E+000 0.750000000000000E+000 0.000000000000000E+000
 0.125000000000000E+000 0.750000000000000E+000 0.000000000000000E+000
 0.625000000000000E+000 0.250000000000000E+000 0.000000000000000E+000
 0.875000000000000E+000 0.250000000000000E+000 0.000000000000000E+000
 0.875000000000000E+000 0.750000000000000E+000 0.000000000000000E+000
 0.625000000000000E+000 0.750000000000000E+000 0.000000000000000E+000
 0.100000000000000E+001 0.500000000000000E+000 0.000000000000000E+000
 0.000000000000000E+000 0.500000000000000E+000 0.000000000000000E+000
 0.500000000000000E+000 0.000000000000000E+000 0.000000000000000E+000
 0.125000000000000E+000 0.500000000000000E+000 0.000000000000000E+000
 0.000000000000000E+000 0.750000000000000E+000 0.000000000000000E+000
 0.000000000000000E+000 0.250000000000000E+000 0.000000000000000E+000
 0.000000000000000E+000 0.875000000000000E+000 0.000000000000000E+000
 0.000000000000000E+000 0.125000000000000E+000 0.000000000000000E+000
 0.625000000000000E-001 0.812500000000000E+000 0.000000000000000E+000
 0.125000000000000E+000 0.375000000000000E+000 0.000000000000000E+000
 0.125000000000000E+000 0.625000000000000E+000 0.000000000000000E+000
 0.500000000000000E+000 0.100000000000000E+001 0.000000000000000E+000
 0.250000000000000E+000 0.100000000000000E+001 0.000000000000000E+000
 0.125000000000000E+000 0.100000000000000E+001 0.000000000000000E+000
 0.729166666666667E-001 0.885416666666667E+000 0.000000000000000E+000
 0.000000000000000E+000 0.625000000000000E+000 0.000000000000000E+000
 0.625000000000000E-001 0.562500000000000E+000 0.000000000000000E+000
 0.375000000000000E+000 0.500000000000000E+000 0.000000000000000E+000
 0.375000000000000E+000 0.100000000000000E+001 0.000000000000000E+000
 0.250000000000000E+000 0.000000000000000E+000 0.000000000000000E+000
 0.625000000000000E-001 0.187500000000000E+000 0.000000000000000E+000
 0.143518518518519E+000 0.775462962962963E-001 0.000000000000000E+000
 0.156250000000000E+000 0.156250000000000E+000 0.000000000000000E+000
 0.729166666666667E-001 0.114583333333333E+000 0.000000000000000E+000
 0.125000000000000E+000 0.000000000000000E+000 0.000000000000000E+000
 0.250000000000000E+000 0.250000000000000E+000 0.000000000000000E+000
 0.375000000000000E+000 0.000000000000000E+000 0.000000000000000E+000
 0.187500000000000E+000 0.218750000000000E+000 0.000000000000000E+000
 0.312500000000000E+000 0.762453007518797E-001 0.000000000000000E+000
 0.270259392278489E+000 0.159169301283415E+000 0.000000000000000E+000
 0.365310977506407E+000 0.155367112827996E+000 0.000000000000000E+000
 0.312500000000000E+000 0.216265619131990E+000 0.000000000000000E+000
 0.500000000000000E+000 0.189389379011873E+000 0.000000000000000E+000
 0.426456487258648E+000 0.196919158251449E+000 0.000000000000000E+000
 0.451620395371675E+000 0.941243892751461E-001 0.000000000000000E+000
 0.381804756165356E+000 0.871724813114945E-001 0.000000000000000E+000
 0.437500000000000E+000 0.273708879364394E-001 0.000000000000000E+000
 0.000000000000000E+000 0.375000000000000E+000 0.000000000000000E+000
 0.625000000000000E-001 0.312500000000000E+000 0.000000000000000E+000
 0.250000000000000E+000 0.750000000000000E+000 0.000000000000000E+000
 0.158482142857143E+000 0.851934523809524E+000 0.000000000000000E+000
 0.210861885404568E+000 0.921875000000000E+000 0.000000000000000E+000
 0.136017278952732E+000 0.925863358051789E+000 0.000000000000000E+000
 0.625000000000000E-001 0.687500000000000E+000 0.000000000000000E+000
 0.250000000000000E+000 0.437500000000000E+000 0.000000000000000E+000
 0.247528011619582E+000 0.839830719156545E+000 0.000000000000000E+000
 0.312500000000000E+000 0.796669265575374E+000 0.000000000000000E+000
 0.419664368355990E+000 0.875000000000000E+000 0.000000000000000E+000
 0.313183356674252E+000 0.918387829019328E+000 0.000000000000000E+000
 0.312500000000000E+000 0.100000000000000E+001 0.000000000000000E+000
 0.380617553087688E+000 0.931527612480385E+000 0.000000000000000E+000
 0.187500000000000E+000 0.785936956899548E+000 0.000000000000000E+000
 0.350379273974835E+000 0.857317802397078E+000 0.000000000000000E+000
 0.228046514569416E+000 0.817347524546315E-001 0.000000000000000E+000
 0.187500000000000E+000 0.312500000000000E+000 0.000000000000000E+000
 0.625000000000000E-001 0.437500000000000E+000 0.000000000000000E+000
 0.197916666666667E+000 0.385416666666667E+000 0.000000000000000E+000
 0.375000000000000E+000 0.375000000000000E+000 0.000000000000000E+000
 0.750000000000000E+000 0.000000000000000E+000 0.000000000000000E+000
 0.625000000000000E-001 0.959280303030303E+000 0.000000000000000E+000
 0.234375000000000E+000 0.562500000000000E+000 0.000000000000000E+000
 0.187500000000000E+000 0.687500000000000E+000 0.000000000000000E+000
 0.193892045454545E+000 0.618607954545455E+000 0.000000000000000E+000
 0.375000000000000E+000 0.625000000000000E+000 0.000000000000000E+000
 0.283775504647110E+000 0.640801989544002E+000 0.000000000000000E+000
 0.281298714846257E+000 0.504888901855782E+000 0.000000000000000E+000
 0.331282779604339E+000 0.562500000000000E+000 0.000000000000000E+000
 0.338845441361880E+000 0.687500000000000E+000 0.000000000000000E+000
 0.500000000000000E+000 0.775815254846569E+000 0.000000000000000E+000
 0.625000000000000E-001 0.407196969696970E-001 0.000000000000000E+000
 0.328125000000000E+000 0.437500000000000E+000 0.000000000000000E+000
 0.284143518518519E+000 0.340856481481482E+000 0.000000000000000E+000
 0.312500000000000E+000 0.278356481481482E+000 0.000000000000000E+000
 0.625000000000000E+000 0.500000000000000E+000 0.000000000000000E+000
 0.410581328448014E+000 0.312500000000000E+000 0.000000000000000E+000
 0.543730092976870E+000 0.258404709955172E+000 0.000000000000000E+000
 0.625000000000000E+000 0.375000000000000E+000 0.000000000000000E+000
 0.500000000000000E+000 0.404784409423024E+000 0.000000000000000E+000
 0.590394028376448E+000 0.312500000000000E+000 0.000000000000000E+000
 0.467392923590959E+000 0.261422480241605E+000 0.000000000000000E+000
 0.508234229043035E+000 0.327522431406248E+000 0.000000000000000E+000
 0.625000000000000E+000 0.000000000000000E+000 0.000000000000000E+000
 0.537311919648379E+000 0.110523699730938E+000 0.000000000000000E+000
 0.750000000000000E+000 0.250000000000000E+000 0.000000000000000E+000
 0.593146640296986E+000 0.172723366619635E+000 0.000000000000000E+000
 0.623771215502605E+000 0.890722450407200E-001 0.000000000000000E+000
 0.687500000000000E+000 0.454068088573020E-001 0.000000000000000E+000
 0.793069391389776E+000 0.125000000000000E+000 0.000000000000000E+000
 0.695513657869308E+000 0.162768437982326E+000 0.000000000000000E+000
 0.687500000000000E+000 0.250000000000000E+000 0.000000000000000E+000
 0.875000000000000E+000 0.500000000000000E+000 0.000000000000000E+000
 0.727921748554044E+000 0.101601148842529E+000 0.000000000000000E+000
 0.759582972952604E+000 0.183381972603444E+000 0.000000000000000E+000
 0.875000000000000E+000 0.375000000000000E+000 0.000000000000000E+000
 0.718750000000000E+000 0.343750000000000E+000 0.000000000000000E+000
 0.697916666666667E+000 0.437500000000000E+000 0.000000000000000E+000
 0.750000000000000E+000 0.572048611111111E+000 0.000000000000000E+000
 0.787123226950355E+000 0.408133865248227E+000 0.000000000000000E+000
 0.804687500000000E+000 0.320312500000000E+000 0.000000000000000E+000
 0.700214460784314E+000 0.513965482026144E+000 0.000000000000000E+000
 0.783021635712153E+000 0.493366127722916E+000 0.000000000000000E+000
 0.625000000000000E+000 0.625000000000000E+000 0.000000000000000E+000
 0.848380638879200E+000 0.437500000000000E+000 0.000000000000000E+000
 0.562500000000000E+000 0.404604515401992E-001 0.000000000000000E+000
 0.875000000000000E+000 0.625000000000000E+000 0.000000000000000E+000
 0.750000000000000E+000 0.750000000000000E+000 0.000000000000000E+000
 0.697046765904942E+000 0.621060933265583E+000 0.000000000000000E+000
 0.200520833333333E+000 0.494791666666667E+000 0.000000000000000E+000
 0.429642360217793E+000 0.800955091165693E+000 0.000000000000000E+000
 0.453073336954457E+000 0.687500000000000E+000 0.000000000000000E+000
 0.548183885155829E+000 0.693587592964698E+000 0.000000000000000E+000
 0.750000000000000E+000 0.100000000000000E+001 0.000000000000000E+000
 0.573843760532799E+000 0.437500000000000E+000 0.000000000000000E+000
 0.500000000000000E+000 0.550126792242997E+000 0.000000000000000E+000
 0.511972906944656E+000 0.477455600833011E+000 0.000000000000000E+000
 0.437507615834863E+000 0.452402202857321E+000 0.000000000000000E+000
 0.546458141439317E+000 0.614345103225503E+000 0.000000000000000E+000
 0.571440414895569E+000 0.547357897962524E+000 0.000000000000000E+000
 0.450991397292447E+000 0.610087136082382E+000 0.000000000000000E+000
 0.875000000000000E+000 0.000000000000000E+000 0.000000000000000E+000
 0.100000000000000E+001 0.250000000000000E+000 0.000000000000000E+000
 0.100000000000000E+001 0.375000000000000E+000 0.000000000000000E+000
 0.687500000000000E+000 0.700324699898860E+000 0.000000000000000E+000
 0.812500000000000E+000 0.687500000000000E+000 0.000000000000000E+000
 0.804621866531165E+000 0.617121866531165E+000 0.000000000000000E+000
 0.825181931429427E+000 0.549770415540467E+000 0.000000000000000E+000
 0.100000000000000E+001 0.625000000000000E+000 0.000000000000000E+000
 0.100000000000000E+001 0.750000000000000E+000 0.000000000000000E+000
[...]
CELL_DATA          303
SCALARS tdens double 1
LOOKUP_TABLE default
 0.411663267386636E-010
 0.127726939742750E-009
 0.399516590665509E+000
 0.339609323071541E-010
 0.410040269923086E-010
 0.415443120026523E-010
 0.539043483130718E-010
 0.257631728295688E-009
 0.268740474737675E-002
 0.260646572982725E-010
 0.150626091595017E-009
 0.444511218143031E-010
 0.895517073005899E-010
 0.163121670938019E-001
 0.836920626789217E-010
 0.176633059335024E-001
 0.292985821333000E-010
 0.295280220445111E-010
 0.401087158935971E-010
 0.628396014228423E-008
 0.108494240460879E-009
 0.288657698808484E-010
 0.585572816435318E-001
 0.339670022344928E-010
 0.299063059533829E-010
 0.596613685981812E-010
 0.336493802557690E-010
 0.183276697088598E-001
 0.539081074923293E-010
 0.199095150863682E-009
 0.387569732454120E-010
 0.375560296634729E-010
 0.390628078333555E-002
 0.848808969773451E-010
 0.147128529761050E-009
 0.374319784485164E-010
 0.276008914741217E-010
 0.588857209426003E-010
 0.450062329885448E-010
 0.261736447220004E-010
 0.298304371147246E-010
 0.383891470316443E-010
 0.128886254282201E+001
 0.333534201650351E-007
 0.158635651056891E+000
 0.911882682851072E-010
 0.596432678935841E-010
 0.395327335621992E-010
 0.340610210572374E-010
 0.681111916860585E-010
 0.336386172314719E-010
 0.548432052983006E-010
 0.308057455377829E-010
 0.272249600389431E-010
 0.385571775455863E-010
 0.474755444389888E-010
 0.845803087090979E-010
 0.917465510915159E-010
 0.434669477583433E-009
 0.435352282787800E-009
 0.264088162553368E-009
 0.323339762183300E-010
 0.339861554087686E-009
 0.264110717769428E-009
 0.606160784968437E-010
 0.914468178650414E-010
 0.764764662616308E-010
 0.118541163243327E-007
 0.181981422882829E-009
 0.147563863905377E-009
 0.154884742900051E-009
 0.596316972414207E-010
 0.140169130427109E-009
 0.560976004352092E-009
 0.883926800347590E-010
 0.272461419512932E-010
 0.720476519814686E-010
 0.100286048671469E-009
 0.765231727892600E-010
 0.820787164528205E-010
 0.307762676763299E-010
 0.336769934083992E-010
 0.529982935535041E-010
 0.101726132768780E-009
 0.656465696055097E-010
 0.393783211114802E-010
 0.856073287050848E-002
 0.579992139326762E-010
 0.306033415046420E-010
 0.378009853527788E-010
 0.307101457363209E-010
 0.374952999997875E-010
 0.278479387183599E-001
 0.409011784078312E-002
 0.406403559277662E-009
 0.874795985238985E-010
 0.164577189135060E-009
 0.216351696419011E-009
 0.792295388454708E-010
 0.129737559216407E-009
 0.831339042380318E-010
 0.942087096613811E-010
 0.681962045741152E-010
 0.689007537545124E-010
 0.327794538149562E-009
 0.195387005659779E-009
 0.248369062148394E-009
 0.980789296788267E-010
 0.639063934317858E-010
 0.102237314926235E+000
 0.360399386457484E-001
 0.695898255515251E-010
 0.139672755064710E-001
 0.706844563667080E-001
 0.734338986219103E-001
 0.273363892337713E+000
 0.110779141185614E-009
 0.261602354637256E-010
 0.289607173604343E-010
 0.289088175197128E-006
 0.320184864159101E-010
 0.209598714679597E+000
 0.692123609208123E-001
 0.372119684073966E-002
 0.352441661786379E-002
 0.152612904512976E-007
 0.185916672928558E-001
 0.216088608544410E-002
 0.114070303505405E+000
 0.126087031466209E+000
 0.123412089275518E-006
 0.962687490671914E-002
 0.377679858978437E-001
 0.347637640519562E+001
 0.458327995691052E-001
 0.332489780272931E-002
 0.259420539435923E-007
 0.425441533334337E-009
 0.295020070129973E-010
 0.275704975903739E-010
 0.151179124256668E-005
 0.116119723971389E+001
 0.361008689326172E-002
 0.452898584704487E+001
 0.369930288647642E-002
 0.186662574458040E-001
 0.557001360781418E-008
 0.114781952879555E-008
 0.560684699977385E-007
 0.576446672852046E-009
 0.341836811365321E-009
 0.500681493922154E-008
 0.114563398246136E+002
 0.862122709456658E-002
 0.198439971095394E-006
 0.810179524379007E-004
 0.264601661738375E-006
 0.539325299362000E-008
 0.692538385385314E-008
 0.123584020300976E-007
 0.462560853221579E-008
 0.119007810564495E-007
 0.419596714342779E-010
 0.113888050052445E-009
 0.900313507904767E-010
 0.845411347495949E-010
 0.241388760589843E-009
 0.223426254666253E-009
 0.877189745708275E-010
 0.417895455764394E-009
 0.487350555313535E-010
 0.401165219186764E+000
 0.837674152683298E-010
 0.300040174821704E-010
 0.299323273057718E-009
 0.698589366525248E-010
 0.900399805149006E-010
 0.195229047693645E-009
 0.431785347255142E-002
 0.495548805746401E+001
 0.108819342373151E+000
 0.579925453880660E-010
 0.723365777320955E-010
 0.708857981946732E-010
 0.321661062798487E-009
 0.222434581472990E-007
 0.880933778526037E-001
 0.372014306477935E+000
 0.270086368010572E-010
 0.577522626883979E-010
 0.949965236898414E+000
 0.957840367260070E+000
 0.683391573620768E-001
 0.376392342664357E-006
 0.118723074495309E-004
 0.429839800473204E-001
 0.547437636479601E-001
 0.110196457848545E-006
 0.247562161812252E-001
 0.155675567346251E+000
 0.174977296128192E-001
 0.625707120506707E-010
 0.126181208582977E-008
 0.165718084671572E-001
 0.140561987746516E-006
 0.772604392697761E-010
 0.764836675391035E-010
 0.169132843125273E-007
 0.297847343126149E-002
 0.430005413406080E+001
 0.158810229889369E+001
 0.217662391387412E-003
 0.325153156121213E-010
 0.150037388660296E-001
 0.373133203832040E-002
 0.151072537404174E-009
 0.158299954098725E-008
 0.319483729883060E-003
 0.113344661156899E-008
 0.329813783375734E-008
 0.261338461088178E-007
 0.915522488984508E-010
 0.520174229486408E-001
 0.255424348320262E-007
 0.153156042076101E+002
 0.659239017646538E+001
 0.716354878309908E-008
 0.379587031779827E-007
 0.200797309063917E-007
 0.433866620028743E-005
 0.207265058035854E-006
 0.145572616743225E-007
 0.178373274409783E-002
 0.162343579704250E-007
 0.648820186619631E-001
 0.312227898803643E+001
 0.831355626130251E+001
 0.578076187578294E-010
 0.536768803764278E-010
 0.284636959870423E-001
 0.341589876806593E-010
 0.352786789124093E+000
 0.144261586868889E+000
 0.358170132442075E-001
 0.118104690188360E+000
 0.256472656340482E-002
 0.140245723089152E-001
 0.305409062274074E-010
 0.370352721878645E-010
 0.482184091383464E-010
 0.348243771979467E-010
 0.400228280102122E-010
 0.355357510068825E-010
 0.284823939269679E-010
 0.282848873098467E-010
 0.306030019334652E-010
 0.440960200179336E-010
 0.296834441137630E-010
 0.330517001374919E-010
 0.207695796181069E-009
 0.122628669908056E-009
 0.804464867184403E-010
 0.106063994548071E-009
 0.929702556956788E-009
 0.173252892427491E-009
 0.322212248461882E-009
 0.722019760067962E-010
 0.514817791534376E-009
 0.787902085356428E-010
 0.195101740469332E-009
 0.346103833656912E-010
 0.578919789188168E-010
 0.909248670608882E-010
 0.774779868341792E-010
 0.124766688100647E-009
 0.830925246182204E-010
 0.715575448559162E-010
 0.603027500852230E-010
 0.187180117827701E-009
 0.420265873826811E-010
 0.340617416202253E-010
 0.578861908475255E-010
 0.261310380041752E-010
 0.271162993418500E-010
 0.982408177275285E-010
 0.469435282451094E-010
 0.339869811428557E-010
 0.340610293324415E-010
 0.395452042297751E-010
 0.358191753676832E-010
 0.758135554560811E-010
 0.403720325125896E-010
 0.352100088385914E-010
 0.495178169278745E-010
 0.539536863447821E-010
 0.296671814536169E-010
 0.436708076988980E-010
 0.343447196017438E-010
 0.422604884934843E-010
 0.308047958148024E-010
 0.330310869065896E-010
 0.274855779576538E-010
 0.273104434157185E-010
