# vtk DataFile Version 3.0
Unstructured Grid
ASCII
DATASET UNSTRUCTURED_GRID
FIELD FieldData 1
TIME 1 1 float
  0.375000E+01
POINTS          169 double
 0.000000000000000E+000 0.000000000000000E+000 0.000000000000000E+000
 0.100000000000000E+001 0.000000000000000E+000 0.000000000000000E+000
 0.100000000000000E+001 0.100000000000000E+001 0.000000000000000E+000
 0.000000000000000E+000 0.100000000000000E+001 0.000000000000000E+000
 0.125000000000000E+000 0.250000000000000E+000 0.000000000000000E+000
 0.375000000000000E+000 0.250000000000000E+000 0.000000000000000E+000
 0.375000000000000E+000 0.750000000000000E+000 0.000000000000000E+000
 0.125000000000000E+000 0.750000000000000E+000 0.000000000000000E+000
 0.625000000000000E+000 0.250000000000000E+000 0.000000000000000E+000
 0.875000000000000E+000 0.250000000000000E+000 0.000000000000000E+000
 0.875000000000000E+000 0.750000000000000E+000 0.000000000000000E+000
 0.625000000000000E+000 0.750000000000000E+000 0.000000000000000E+000
 0.100000000000000E+001 0.500000000000000E+000 0.000000000000000E+000
 0.000000000000000E+000 0.500000000000000E+000 0.000000000000000E+000
 0.500000000000000E+000 0.000000000000000E+000 0.000000000000000E+000
 0.125000000000000E+000 0.500000000000000E+000 0.000000000000000E+000
 0.000000000000000E+000 0.750000000000000E+000 0.000000000000000E+000
 0.000000000000000E+000 0.250000000000000E+000 0.000000000000000E+000
 0.000000000000000E+000 0.875000000000000E+000 0.000000000000000E+000
 0.000000000000000E+000 0.125000000000000E+000 0.000000000000000E+000
 0.625000000000000E-001 0.812500000000000E+000 0.000000000000000E+000
 0.125000000000000E+000 0.375000000000000E+000 0.000000000000000E+000
 0.125000000000000E+000 0.625000000000000E+000 0.000000000000000E+000
 0.500000000000000E+000 0.100000000000000E+001 0.000000000000000E+000
 0.250000000000000E+000 0.100000000000000E+001 0.000000000000000E+000
 0.125000000000000E+000 0.100000000000000E+001 0.000000000000000E+000
 0.729166666666667E-001 0.885416666666667E+000 0.000000000000000E+000
 0.000000000000000E+000 0.625000000000000E+000 0.000000000000000E+000
 0.625000000000000E-001 0.562500000000000E+000 0.000000000000000E+000
 0.375000000000000E+000 0.500000000000000E+000 0.000000000000000E+000
 0.375000000000000E+000 0.100000000000000E+001 0.000000000000000E+000
 0.250000000000000E+000 0.000000000000000E+000 0.000000000000000E+000
 0.625000000000000E-001 0.187500000000000E+000 0.000000000000000E+000
 0.143518518518519E+000 0.775462962962963E-001 0.000000000000000E+000
 0.156250000000000E+000 0.156250000000000E+000 0.000000000000000E+000
 0.729166666666667E-001 0.114583333333333E+000 0.000000000000000E+000
 0.125000000000000E+000 0.000000000000000E+000 0.000000000000000E+000
 0.250000000000000E+000 0.250000000000000E+000 0.000000000000000E+000
 0.375000000000000E+000 0.000000000000000E+000 0.000000000000000E+000
 0.187500000000000E+000 0.218750000000000E+000 0.000000000000000E+000
 0.312500000000000E+000 0.762453007518797E-001 0.000000000000000E+000
 0.270259392278489E+000 0.159169301283415E+000 0.000000000000000E+000
 0.365310977506407E+000 0.155367112827996E+000 0.000000000000000E+000
 0.312500000000000E+000 0.216265619131990E+000 0.000000000000000E+000
 0.500000000000000E+000 0.189389379011873E+000 0.000000000000000E+000
 0.426456487258648E+000 0.196919158251449E+000 0.000000000000000E+000
 0.451620395371675E+000 0.941243892751461E-001 0.000000000000000E+000
 0.381804756165356E+000 0.871724813114945E-001 0.000000000000000E+000
 0.437500000000000E+000 0.273708879364394E-001 0.000000000000000E+000
 0.000000000000000E+000 0.375000000000000E+000 0.000000000000000E+000
 0.625000000000000E-001 0.312500000000000E+000 0.000000000000000E+000
 0.250000000000000E+000 0.750000000000000E+000 0.000000000000000E+000
 0.158482142857143E+000 0.851934523809524E+000 0.000000000000000E+000
 0.210861885404568E+000 0.921875000000000E+000 0.000000000000000E+000
 0.136017278952732E+000 0.925863358051789E+000 0.000000000000000E+000
 0.625000000000000E-001 0.687500000000000E+000 0.000000000000000E+000
 0.250000000000000E+000 0.437500000000000E+000 0.000000000000000E+000
 0.247528011619582E+000 0.839830719156545E+000 0.000000000000000E+000
 0.312500000000000E+000 0.796669265575374E+000 0.000000000000000E+000
 0.419664368355990E+000 0.875000000000000E+000 0.000000000000000E+000
 0.313183356674252E+000 0.918387829019328E+000 0.000000000000000E+000
 0.312500000000000E+000 0.100000000000000E+001 0.000000000000000E+000
 0.380617553087688E+000 0.931527612480385E+000 0.000000000000000E+000
 0.187500000000000E+000 0.785936956899548E+000 0.000000000000000E+000
 0.350379273974835E+000 0.857317802397078E+000 0.000000000000000E+000
 0.228046514569416E+000 0.817347524546315E-001 0.000000000000000E+000
 0.187500000000000E+000 0.312500000000000E+000 0.000000000000000E+000
 0.625000000000000E-001 0.437500000000000E+000 0.000000000000000E+000
 0.197916666666667E+000 0.385416666666667E+000 0.000000000000000E+000
 0.375000000000000E+000 0.375000000000000E+000 0.000000000000000E+000
 0.750000000000000E+000 0.000000000000000E+000 0.000000000000000E+000
 0.625000000000000E-001 0.959280303030303E+000 0.000000000000000E+000
 0.234375000000000E+000 0.562500000000000E+000 0.000000000000000E+000
 0.187500000000000E+000 0.687500000000000E+000 0.000000000000000E+000
 0.193892045454545E+000 0.618607954545455E+000 0.000000000000000E+000
 0.375000000000000E+000 0.625000000000000E+000 0.000000000000000E+000
 0.283775504647110E+000 0.640801989544002E+000 0.000000000000000E+000
 0.281298714846257E+000 0.504888901855782E+000 0.000000000000000E+000
 0.331282779604339E+000 0.562500000000000E+000 0.000000000000000E+000
 0.338845441361880E+000 0.687500000000000E+000 0.000000000000000E+000
 0.500000000000000E+000 0.775815254846569E+000 0.000000000000000E+000
 0.625000000000000E-001 0.407196969696970E-001 0.000000000000000E+000
 0.328125000000000E+000 0.437500000000000E+000 0.000000000000000E+000
 0.284143518518519E+000 0.340856481481482E+000 0.000000000000000E+000
 0.312500000000000E+000 0.278356481481482E+000 0.000000000000000E+000
 0.625000000000000E+000 0.500000000000000E+000 0.000000000000000E+000
 0.410581328448014E+000 0.312500000000000E+000 0.000000000000000E+000
 0.543730092976870E+000 0.258404709955172E+000 0.000000000000000E+000
 0.625000000000000E+000 0.375000000000000E+000 0.000000000000000E+000
 0.500000000000000E+000 0.404784409423024E+000 0.000000000000000E+000
 0.590394028376448E+000 0.312500000000000E+000 0.000000000000000E+000
 0.467392923590959E+000 0.261422480241605E+000 0.000000000000000E+000
 0.508234229043035E+000 0.327522431406248E+000 0.000000000000000E+000
 0.625000000000000E+000 0.000000000000000E+000 0.000000000000000E+000
 0.537311919648379E+000 0.110523699730938E+000 0.000000000000000E+000
 0.750000000000000E+000 0.250000000000000E+000 0.000000000000000E+000
 0.593146640296986E+000 0.172723366619635E+000 0.000000000000000E+000
 0.623771215502605E+000 0.890722450407200E-001 0.000000000000000E+000
 0.687500000000000E+000 0.454068088573020E-001 0.000000000000000E+000
 0.793069391389776E+000 0.125000000000000E+000 0.000000000000000E+000
 0.695513657869308E+000 0.162768437982326E+000 0.000000000000000E+000
 0.687500000000000E+000 0.250000000000000E+000 0.000000000000000E+000
 0.875000000000000E+000 0.500000000000000E+000 0.000000000000000E+000
 0.727921748554044E+000 0.101601148842529E+000 0.000000000000000E+000
 0.759582972952604E+000 0.183381972603444E+000 0.000000000000000E+000
 0.875000000000000E+000 0.375000000000000E+000 0.000000000000000E+000
 0.718750000000000E+000 0.343750000000000E+000 0.000000000000000E+000
 0.697916666666667E+000 0.437500000000000E+000 0.000000000000000E+000
 0.750000000000000E+000 0.572048611111111E+000 0.000000000000000E+000
 0.787123226950355E+000 0.408133865248227E+000 0.000000000000000E+000
 0.804687500000000E+000 0.320312500000000E+000 0.000000000000000E+000
 0.700214460784314E+000 0.513965482026144E+000 0.000000000000000E+000
 0.783021635712153E+000 0.493366127722916E+000 0.000000000000000E+000
 0.625000000000000E+000 0.625000000000000E+000 0.000000000000000E+000
 0.848380638879200E+000 0.437500000000000E+000 0.000000000000000E+000
 0.562500000000000E+000 0.404604515401992E-001 0.000000000000000E+000
 0.875000000000000E+000 0.625000000000000E+000 0.000000000000000E+000
 0.750000000000000E+000 0.750000000000000E+000 0.000000000000000E+000
 0.697046765904942E+000 0.621060933265583E+000 0.000000000000000E+000
 0.200520833333333E+000 0.494791666666667E+000 0.000000000000000E+000
 0.429642360217793E+000 0.800955091165693E+000 0.000000000000000E+000
 0.453073336954457E+000 0.687500000000000E+000 0.000000000000000E+000
 0.548183885155829E+000 0.693587592964698E+000 0.000000000000000E+000
 0.750000000000000E+000 0.100000000000000E+001 0.000000000000000E+000
 0.573843760532799E+000 0.437500000000000E+000 0.000000000000000E+000
 0.500000000000000E+000 0.550126792242997E+000 0.000000000000000E+000
 0.511972906944656E+000 0.477455600833011E+000 0.000000000000000E+000
 0.437507615834863E+000 0.452402202857321E+000 0.000000000000000E+000
 0.546458141439317E+000 0.614345103225503E+000 0.000000000000000E+000
 0.571440414895569E+000 0.547357897962524E+000 0.000000000000000E+000
 0.450991397292447E+000 0.610087136082382E+000 0.000000000000000E+000
 0.875000000000000E+000 0.000000000000000E+000 0.000000000000000E+000
 0.100000000000000E+001 0.250000000000000E+000 0.000000000000000E+000
 0.100000000000000E+001 0.375000000000000E+000 0.000000000000000E+000
 0.687500000000000E+000 0.700324699898860E+000 0.000000000000000E+000
 0.812500000000000E+000 0.687500000000000E+000 0.000000000000000E+000
 0.804621866531165E+000 0.617121866531165E+000 0.000000000000000E+000
 0.825181931429427E+000 0.549770415540467E+000 0.000000000000000E+000
 0.100000000000000E+001 0.625000000000000E+000 0.000000000000000E+000
 0.100000000000000E+001 0.750000000000000E+000 0.000000000000000E+000
[...]
CELL_DATA          303
SCALARS tdens double 1
LOOKUP_TABLE default
 0.135331871502316E+000
 0.174932834272472E+000
 0.163518167677032E+000
 0.131948507475947E+000
 0.135291515327441E+000
 0.136537423764208E+000
 0.144668219513268E+000
 0.191776750253835E+000
 0.193363264054173E+000
 0.125669565727229E+000
 0.181808921242969E+000
 0.138032472217935E+000
 0.145601823307882E+000
 0.316305945920048E+000
 0.164064470345659E+000
 0.317279620401427E+000
 0.128166697173142E+000
 0.127266279333741E+000
 0.128747828218804E+000
 0.294811862713900E+000
 0.148037918558747E+000
 0.126123970458547E+000
 0.162199578416608E+000
 0.132078189454589E+000
 0.128308284699016E+000
 0.143341174866917E+000
 0.130756636235674E+000
 0.139189286163735E+000
 0.136715074308263E+000
 0.165013033904975E+000
 0.133182865162909E+000
 0.135047966283352E+000
 0.139087006756463E+000
 0.150151175684403E+000
 0.177488000086127E+000
 0.133373161220706E+000
 0.125672007565725E+000
 0.140262548968255E+000
 0.137366491905203E+000
 0.125770132513876E+000
 0.128326632154027E+000
 0.128798015367972E+000
 0.163175749789275E+000
 0.286143011687604E+000
 0.140920476630202E+000
 0.166502787090464E+000
 0.140513594621418E+000
 0.133880370219869E+000
 0.132076357044222E+000
 0.150658726338583E+000
 0.130735840121558E+000
 0.145645910398427E+000
 0.128225747535422E+000
 0.125403049330355E+000
 0.134563864328687E+000
 0.138758320209488E+000
 0.163965899567862E+000
 0.152138094298853E+000
 0.202717536817585E+000
 0.200161736504703E+000
 0.194067416989892E+000
 0.129362525500972E+000
 0.161827108256153E+000
 0.189860098974823E+000
 0.150323157830477E+000
 0.161074361464391E+000
 0.160426304478585E+000
 0.244407084559519E+000
 0.179411577287831E+000
 0.172236966582303E+000
 0.183195641902528E+000
 0.150054520456891E+000
 0.175901790477366E+000
 0.215167855748935E+000
 0.161361739426266E+000
 0.125413202423062E+000
 0.156459641243661E+000
 0.167573926403476E+000
 0.161300589095206E+000
 0.163404786258648E+000
 0.131862380693091E+000
 0.131951466069284E+000
 0.136713955375348E+000
 0.147433529530156E+000
 0.149206402260380E+000
 0.133849419486432E+000
 0.223508369056426E+000
 0.147813041258698E+000
 0.128023558404201E+000
 0.132609319638833E+000
 0.131864832872934E+000
 0.135045008218934E+000
 0.159247932045912E+000
 0.128713807642630E+000
 0.199402268412044E+000
 0.158507233373826E+000
 0.175490877548789E+000
 0.189221153218236E+000
 0.161490721389619E+000
 0.167033265869859E+000
 0.159329996576975E+000
 0.165758433533329E+000
 0.154593760293604E+000
 0.155012653999385E+000
 0.161212155287595E+000
 0.162641550823545E+000
 0.186028183303191E+000
 0.166412120570293E+000
 0.145568924314551E+000
 0.243270118682927E+000
 0.162254032991181E+000
 0.155385226374892E+000
 0.327023898617366E+000
 0.137103554228658E+000
 0.175428013268681E+000
 0.179014568579477E+000
 0.170907407994244E+000
 0.125758412923792E+000
 0.126115489589397E+000
 0.175308799272607E+000
 0.129122755485075E+000
 0.258066794878687E+000
 0.136824810303008E+000
 0.139018824294089E+000
 0.128755112711678E+000
 0.345518472973737E+000
 0.285117223322954E+000
 0.172711026487488E+000
 0.220046284853615E+000
 0.204503248208295E+000
 0.178544696612930E+000
 0.227330284610287E+000
 0.327865472196323E+000
 0.265829325513834E+000
 0.275069805948208E+000
 0.214126855451698E+000
 0.272589596516986E+000
 0.198224141597055E+000
 0.127255140554981E+000
 0.125682964935420E+000
 0.281106022479496E+000
 0.222365360804123E+000
 0.195791126459617E+000
 0.260351401340795E+000
 0.210048489549479E+000
 0.255168408606372E+000
 0.302757340264445E+000
 0.219154082740212E+000
 0.274529181295995E+000
 0.217269614231535E+000
 0.198496500961701E+000
 0.256726309240311E+000
 0.330792666134314E+000
 0.247622728748383E+000
 0.338679223862434E+000
 0.344689824402987E+000
 0.274208690781774E+000
 0.302645251541595E+000
 0.243557794499007E+000
 0.245346991054007E+000
 0.256006686426981E+000
 0.288899147667595E+000
 0.135554926969325E+000
 0.169721125317166E+000
 0.166933623387347E+000
 0.164266607594505E+000
 0.199863426841552E+000
 0.186735373404606E+000
 0.164903230095859E+000
 0.211221987250508E+000
 0.141021041527762E+000
 0.166122347027402E+000
 0.158854621149123E+000
 0.127636437560562E+000
 0.162946710407049E+000
 0.154607959570204E+000
 0.158108854395615E+000
 0.173363725672275E+000
 0.139441615897943E+000
 0.245494091445346E+000
 0.176914783264419E+000
 0.148318433309436E+000
 0.149765740053130E+000
 0.145397211887563E+000
 0.184823430458066E+000
 0.270323743589968E+000
 0.239887949590570E+000
 0.200341029650372E+000
 0.125833685422291E+000
 0.137064861939941E+000
 0.217807816853285E+000
 0.183550080230279E+000
 0.133343627036531E+000
 0.132978184821428E+000
 0.195677704875637E+000
 0.161472789454494E+000
 0.138516488402273E+000
 0.182298850573047E+000
 0.225062964456935E+000
 0.143029552263915E+000
 0.132450833040445E+000
 0.142338871492433E+000
 0.240898009787343E+000
 0.127594422179646E+000
 0.130513791722020E+000
 0.161593519685333E+000
 0.160575639021136E+000
 0.168193547510863E+000
 0.208483003848040E+000
 0.249783538262762E+000
 0.182212381851753E+000
 0.266802277533214E+000
 0.128344399635072E+000
 0.134240258723515E+000
 0.138901709868521E+000
 0.175988146609477E+000
 0.229139262535101E+000
 0.339717150126553E+000
 0.225900678186315E+000
 0.297749021532344E+000
 0.270811844749107E+000
 0.155506839173910E+000
 0.182817588480004E+000
 0.346231972191174E+000
 0.330644727996328E+000
 0.332259777876227E+000
 0.299096787537938E+000
 0.348472249559247E+000
 0.346915018961361E+000
 0.343738843821579E+000
 0.339212348670543E+000
 0.281535436442015E+000
 0.335041111344941E+000
 0.345912216336245E+000
 0.345157094253555E+000
 0.340096561280376E+000
 0.327955351299438E+000
 0.140438391550767E+000
 0.143341603008651E+000
 0.260244358802439E+000
 0.132088762380161E+000
 0.189365335542473E+000
 0.158238146153026E+000
 0.163584019633796E+000
 0.136537021921661E+000
 0.126912331521527E+000
 0.153083799240374E+000
 0.131733014932716E+000
 0.132059176606094E+000
 0.140370385773043E+000
 0.134150565014443E+000
 0.135682849189898E+000
 0.132112530428907E+000
 0.126392125342641E+000
 0.126280862498694E+000
 0.131833517555959E+000
 0.136560130905947E+000
 0.128186621845355E+000
 0.128238962897457E+000
 0.188117518270583E+000
 0.170775439430078E+000
 0.162258360156776E+000
 0.170636959405148E+000
 0.216201054188253E+000
 0.180971640547673E+000
 0.161499546797685E+000
 0.156021953901905E+000
 0.199777191157125E+000
 0.160931241429587E+000
 0.180107299191087E+000
 0.134153032615981E+000
 0.147383686352603E+000
 0.165490265212370E+000
 0.161253798769163E+000
 0.172583680944168E+000
 0.159745001468722E+000
 0.151961791658382E+000
 0.150028131004231E+000
 0.166956766286559E+000
 0.135258110487009E+000
 0.131984128592439E+000
 0.136818588481799E+000
 0.125648630667191E+000
 0.125829200549314E+000
 0.149067990637539E+000
 0.137695280640678E+000
 0.132090161858609E+000
 0.131205076770013E+000
 0.134126000386511E+000
 0.132688092344723E+000
 0.148509261387507E+000
 0.135728402726724E+000
 0.131591437507603E+000
 0.137489487700883E+000
 0.142910825114852E+000
 0.127283994843462E+000
 0.136456491909957E+000
 0.132337536949179E+000
 0.134720105719571E+000
 0.128239750197163E+000
 0.129774129169263E+000
 0.125628888473389E+000
 0.125424428116484E+000
