# vtk DataFile Version 3.0
Unstructured Grid
ASCII
DATASET UNSTRUCTURED_GRID
FIELD FieldData 1
TIME 1 1 float
  0.335833E+02
POINTS          169 double
 0.000000000000000E+000 0.000000000000000E+000 0.000000000000000E+000
 0.100000000000000E+001 0.000000000000000E+000 0.000000000000000E+000
 0.100000000000000E+001 0.100000000000000E+001 0.000000000000000E+000
 0.000000000000000E+000 0.100000000000000E+001 0.000000000000000E+000
 0.125000000000000E+000 0.250000000000000E+000 0.000000000000000E+000
 0.375000000000000E+000 0.250000000000000E+000 0.000000000000000E+000
 0.375000000000000E+000 0.750000000000000E+000 0.000000000000000E+000
 0.125000000000000E+000 0.750000000000000E+000 0.000000000000000E+000
 0.625000000000000E+000 0.250000000000000E+000 0.000000000000000E+000
 0.875000000000000E+000 0.250000000000000E+000 0.000000000000000E+000
 0.875000000000000E+000 0.750000000000000E+000 0.000000000000000E+000
 0.625000000000000E+000 0.750000000000000E+000 0.000000000000000E+000
 0.100000000000000E+001 0.500000000000000E+000 0.000000000000000E+000
 0.000000000000000E+000 0.500000000000000E+000 0.000000000000000E+000
 0.500000000000000E+000 0.000000000000000E+000 0.000000000000000E+000
 0.125000000000000E+000 0.500000000000000E+000 0.000000000000000E+000
 0.000000000000000E+000 0.750000000000000E+000 0.000000000000000E+000
 0.000000000000000E+000 0.250000000000000E+000 0.000000000000000E+000
 0.000000000000000E+000 0.875000000000000E+000 0.000000000000000E+000
 0.000000000000000E+000 0.125000000000000E+000 0.000000000000000E+000
 0.625000000000000E-001 0.812500000000000E+000 0.000000000000000E+000
 0.125000000000000E+000 0.375000000000000E+000 0.000000000000000E+000
 0.125000000000000E+000 0.625000000000000E+000 0.000000000000000E+000
 0.500000000000000E+000 0.100000000000000E+001 0.000000000000000E+000
 0.250000000000000E+000 0.100000000000000E+001 0.000000000000000E+000
 0.125000000000000E+000 0.100000000000000E+001 0.000000000000000E+000
 0.729166666666667E-001 0.885416666666667E+000 0.000000000000000E+000
 0.000000000000000E+000 0.625000000000000E+000 0.000000000000000E+000
 0.625000000000000E-001 0.562500000000000E+000 0.000000000000000E+000
 0.375000000000000E+000 0.500000000000000E+000 0.000000000000000E+000
 0.375000000000000E+000 0.100000000000000E+001 0.000000000000000E+000
 0.250000000000000E+000 0.000000000000000E+000 0.000000000000000E+000
 0.625000000000000E-001 0.187500000000000E+000 0.000000000000000E+000
 0.143518518518519E+000 0.775462962962963E-001 0.000000000000000E+000
 0.156250000000000E+000 0.156250000000000E+000 0.000000000000000E+000
 0.729166666666667E-001 0.114583333333333E+000 0.000000000000000E+000
 0.125000000000000E+000 0.000000000000000E+000 0.000000000000000E+000
 0.250000000000000E+000 0.250000000000000E+000 0.000000000000000E+000
 0.375000000000000E+000 0.000000000000000E+000 0.000000000000000E+000
 0.187500000000000E+000 0.218750000000000E+000 0.000000000000000E+000
 0.312500000000000E+000 0.762453007518797E-001 0.000000000000000E+000
 0.270259392278489E+000 0.159169301283415E+000 0.000000000000000E+000
 0.365310977506407E+000 0.155367112827996E+000 0.000000000000000E+000
 0.312500000000000E+000 0.216265619131990E+000 0.000000000000000E+000
 0.500000000000000E+000 0.189389379011873E+000 0.000000000000000E+000
 0.426456487258648E+000 0.196919158251449E+000 0.000000000000000E+000
 0.451620395371675E+000 0.941243892751461E-001 0.000000000000000E+000
 0.381804756165356E+000 0.871724813114945E-001 0.000000000000000E+000
 0.437500000000000E+000 0.273708879364394E-001 0.000000000000000E+000
 0.000000000000000E+000 0.375000000000000E+000 0.000000000000000E+000
 0.625000000000000E-001 0.312500000000000E+000 0.000000000000000E+000
 0.250000000000000E+000 0.750000000000000E+000 0.000000000000000E+000
 0.158482142857143E+000 0.851934523809524E+000 0.000000000000000E+000
 0.210861885404568E+000 0.921875000000000E+000 0.000000000000000E+000
 0.136017278952732E+000 0.925863358051789E+000 0.000000000000000E+000
 0.625000000000000E-001 0.687500000000000E+000 0.000000000000000E+000
 0.250000000000000E+000 0.437500000000000E+000 0.000000000000000E+000
 0.247528011619582E+000 0.839830719156545E+000 0.000000000000000E+000
 0.312500000000000E+000 0.796669265575374E+000 0.000000000000000E+000
 0.419664368355990E+000 0.875000000000000E+000 0.000000000000000E+000
 0.313183356674252E+000 0.918387829019328E+000 0.000000000000000E+000
 0.312500000000000E+000 0.100000000000000E+001 0.000000000000000E+000
 0.380617553087688E+000 0.931527612480385E+000 0.000000000000000E+000
 0.187500000000000E+000 0.785936956899548E+000 0.000000000000000E+000
 0.350379273974835E+000 0.857317802397078E+000 0.000000000000000E+000
 0.228046514569416E+000 0.817347524546315E-001 0.000000000000000E+000
 0.187500000000000E+000 0.312500000000000E+000 0.000000000000000E+000
 0.625000000000000E-001 0.437500000000000E+000 0.000000000000000E+000
 0.197916666666667E+000 0.385416666666667E+000 0.000000000000000E+000
 0.375000000000000E+000 0.375000000000000E+000 0.000000000000000E+000
 0.750000000000000E+000 0.000000000000000E+000 0.000000000000000E+000
 0.625000000000000E-001 0.959280303030303E+000 0.000000000000000E+000
 0.234375000000000E+000 0.562500000000000E+000 0.000000000000000E+000
 0.187500000000000E+000 0.687500000000000E+000 0.000000000000000E+000
 0.193892045454545E+000 0.618607954545455E+000 0.000000000000000E+000
 0.375000000000000E+000 0.625000000000000E+000 0.000000000000000E+000
 0.283775504647110E+000 0.640801989544002E+000 0.000000000000000E+000
 0.281298714846257E+000 0.504888901855782E+000 0.000000000000000E+000
 0.331282779604339E+000 0.562500000000000E+000 0.000000000000000E+000
 0.338845441361880E+000 0.687500000000000E+000 0.000000000000000E+000
 0.500000000000000E+000 0.775815254846569E+000 0.000000000000000E+000
 0.625000000000000E-001 0.407196969696970E-001 0.000000000000000E+000
 0.328125000000000E+000 0.437500000000000E+000 0.000000000000000E+000
 0.284143518518519E+000 0.340856481481482E+000 0.000000000000000E+000
 0.312500000000000E+000 0.278356481481482E+000 0.000000000000000E+000
 0.625000000000000E+000 0.500000000000000E+000 0.000000000000000E+000
 0.410581328448014E+000 0.312500000000000E+000 0.000000000000000E+000
 0.543730092976870E+000 0.258404709955172E+000 0.000000000000000E+000
 0.625000000000000E+000 0.375000000000000E+000 0.000000000000000E+000
 0.500000000000000E+000 0.404784409423024E+000 0.000000000000000E+000
 0.590394028376448E+000 0.312500000000000E+000 0.000000000000000E+000
 0.467392923590959E+000 0.261422480241605E+000 0.000000000000000E+000
 0.508234229043035E+000 0.327522431406248E+000 0.000000000000000E+000
 0.625000000000000E+000 0.000000000000000E+000 0.000000000000000E+000
 0.537311919648379E+000 0.110523699730938E+000 0.000000000000000E+000
 0.750000000000000E+000 0.250000000000000E+000 0.000000000000000E+000
 0.593146640296986E+000 0.172723366619635E+000 0.000000000000000E+000
 0.623771215502605E+000 0.890722450407200E-001 0.000000000000000E+000
 0.687500000000000E+000 0.454068088573020E-001 0.000000000000000E+000
 0.793069391389776E+000 0.125000000000000E+000 0.000000000000000E+000
 0.695513657869308E+000 0.162768437982326E+000 0.000000000000000E+000
 0.687500000000000E+000 0.250000000000000E+000 0.000000000000000E+000
 0.875000000000000E+000 0.500000000000000E+000 0.000000000000000E+000
 0.727921748554044E+000 0.101601148842529E+000 0.000000000000000E+000
 0.759582972952604E+000 0.183381972603444E+000 0.000000000000000E+000
 0.875000000000000E+000 0.375000000000000E+000 0.000000000000000E+000
 0.718750000000000E+000 0.343750000000000E+000 0.000000000000000E+000
 0.697916666666667E+000 0.437500000000000E+000 0.000000000000000E+000
 0.750000000000000E+000 0.572048611111111E+000 0.000000000000000E+000
 0.787123226950355E+000 0.408133865248227E+000 0.000000000000000E+000
 0.804687500000000E+000 0.320312500000000E+000 0.000000000000000E+000
 0.700214460784314E+000 0.513965482026144E+000 0.000000000000000E+000
 0.783021635712153E+000 0.493366127722916E+000 0.000000000000000E+000
 0.625000000000000E+000 0.625000000000000E+000 0.000000000000000E+000
 0.848380638879200E+000 0.437500000000000E+000 0.000000000000000E+000
 0.562500000000000E+000 0.404604515401992E-001 0.000000000000000E+000
 0.875000000000000E+000 0.625000000000000E+000 0.000000000000000E+000
 0.750000000000000E+000 0.750000000000000E+000 0.000000000000000E+000
 0.697046765904942E+000 0.621060933265583E+000 0.000000000000000E+000
 0.200520833333333E+000 0.494791666666667E+000 0.000000000000000E+000
 0.429642360217793E+000 0.800955091165693E+000 0.000000000000000E+000
 0.453073336954457E+000 0.687500000000000E+000 0.000000000000000E+000
 0.548183885155829E+000 0.693587592964698E+000 0.000000000000000E+000
 0.750000000000000E+000 0.100000000000000E+001 0.000000000000000E+000
 0.573843760532799E+000 0.437500000000000E+000 0.000000000000000E+000
 0.500000000000000E+000 0.550126792242997E+000 0.000000000000000E+000
 0.511972906944656E+000 0.477455600833011E+000 0.000000000000000E+000
 0.437507615834863E+000 0.452402202857321E+000 0.000000000000000E+000
 0.546458141439317E+000 0.614345103225503E+000 0.000000000000000E+000
 0.571440414895569E+000 0.547357897962524E+000 0.000000000000000E+000
 0.450991397292447E+000 0.610087136082382E+000 0.000000000000000E+000
 0.875000000000000E+000 0.000000000000000E+000 0.000000000000000E+000
 0.100000000000000E+001 0.250000000000000E+000 0.000000000000000E+000
 0.100000000000000E+001 0.375000000000000E+000 0.000000000000000E+000
 0.687500000000000E+000 0.700324699898860E+000 0.000000000000000E+000
 0.812500000000000E+000 0.687500000000000E+000 0.000000000000000E+000
 0.804621866531165E+000 0.617121866531165E+000 0.000000000000000E+000
 0.825181931429427E+000 0.549770415540467E+000 0.000000000000000E+000
 0.100000000000000E+001 0.625000000000000E+000 0.000000000000000E+000
 0.100000000000000E+001 0.750000000000000E+000 0.000000000000000E+000
[...]
CELL_DATA          303
SCALARS tdens double 1
LOOKUP_TABLE default
 0.164664360698829E-009
 0.510881509717805E-009
 0.407373446649813E+000
 0.135842220262637E-009
 0.164015387155603E-009
 0.166176544799569E-009
 0.215615706689008E-009
 0.103043796166063E-008
 0.268757588690609E-002
 0.104258532355977E-009
 0.602467165192994E-009
 0.177803593297844E-009
 0.358199141964830E-009
 0.156287765860917E-001
 0.334759656008910E-009
 0.184044749112754E-001
 0.117192845768104E-009
 0.118111945312132E-009
 0.160423928152267E-009
 0.251256698889189E-007
 0.433969017157294E-009
 0.115461556700847E-009
 0.584602478181312E-001
 0.135867667383891E-009
 0.119623510741077E-009
 0.238644144130307E-009
 0.134597252613943E-009
 0.161598694457909E-001
 0.215623178007891E-009
 0.796369367645047E-009
 0.155027326543722E-009
 0.150223181535983E-009
 0.390968124576113E-002
 0.339522347163966E-009
 0.588481077838961E-009
 0.149727496916356E-009
 0.110403480092565E-009
 0.235541853322777E-009
 0.180024245039027E-009
 0.104694554951231E-009
 0.119320191417078E-009
 0.153545832739936E-009
 0.126622906401390E+001
 0.133248143825278E-006
 0.157189963437616E+000
 0.364742231120659E-009
 0.238570671688762E-009
 0.158130282991574E-009
 0.136243678386610E-009
 0.272441757522340E-009
 0.134554104140361E-009
 0.219371027737822E-009
 0.123222750004791E-009
 0.108899747161119E-009
 0.154228139410652E-009
 0.189901281039776E-009
 0.338312340352256E-009
 0.366984300268955E-009
 0.173839643191134E-008
 0.174123359765444E-008
 0.105624918237280E-008
 0.129335614023204E-009
 0.135939129570970E-008
 0.105636127298378E-008
 0.242461418637215E-009
 0.365780244427930E-009
 0.305899270116734E-009
 0.473824488757030E-007
 0.727904179510973E-009
 0.590239021424106E-009
 0.619498070892706E-009
 0.238524448962551E-009
 0.560645462298002E-009
 0.224344702365918E-008
 0.353561747693546E-009
 0.108984494876267E-009
 0.288185572749603E-009
 0.401130332999150E-009
 0.306085990755802E-009
 0.328306591679281E-009
 0.123104910295768E-009
 0.134706329778067E-009
 0.211985006636784E-009
 0.406901661558768E-009
 0.262583680652333E-009
 0.157512847623243E-009
 0.814448483499805E-002
 0.231994492343709E-009
 0.122413182119839E-009
 0.151203534530567E-009
 0.122840400515831E-009
 0.149980057479129E-009
 0.285658295917469E-001
 0.409973584490669E-002
 0.162538242103386E-008
 0.349912375619142E-009
 0.658288379234719E-009
 0.865337556464626E-009
 0.316910798334803E-009
 0.518935987567343E-009
 0.332527948525164E-009
 0.376822981638732E-009
 0.272780554408622E-009
 0.275598539054422E-009
 0.131114914094430E-008
 0.781539324604080E-009
 0.993392360484017E-009
 0.392302952468209E-009
 0.255623929141926E-009
 0.100259282055927E+000
 0.360637393247037E-001
 0.278355453817247E-009
 0.138751422303799E-001
 0.706846787932803E-001
 0.728416877835850E-001
 0.269599487324415E+000
 0.443100213884648E-009
 0.104640889793481E-009
 0.115841448584444E-009
 0.115213435021136E-005
 0.128073728525648E-009
 0.215481931647138E+000
 0.694679612755302E-001
 0.371860390698356E-002
 0.356763129597894E-002
 0.610378616170289E-007
 0.204430341494151E-001
 0.558730787145528E-002
 0.125269720065420E+000
 0.127137402516314E+000
 0.491909176754358E-006
 0.967982588553385E-002
 0.695590881503455E-001
 0.332189515606763E+001
 0.456666148895918E-001
 0.332751190036726E-002
 0.103692040622141E-006
 0.170155831018983E-008
 0.118007843794579E-009
 0.110281886336701E-009
 0.596884104543371E-005
 0.113003337757087E+001
 0.476035672326958E-002
 0.449455713460132E+001
 0.274017316208740E-002
 0.191144273472143E-001
 0.222710117638557E-007
 0.459028834746683E-008
 0.223964984371216E-006
 0.230535935032332E-008
 0.136717107289636E-008
 0.200139865603494E-007
 0.113537078854501E+002
 0.862051621747410E-002
 0.793628464685178E-006
 0.283097008642202E-003
 0.105441436126451E-005
 0.215613870945447E-007
 0.276820340740296E-007
 0.493941123738099E-007
 0.184936117089161E-007
 0.475752572687294E-007
 0.167838045910290E-009
 0.455540263146100E-009
 0.360114437223286E-009
 0.338155894349128E-009
 0.965484887364441E-009
 0.893652692723174E-009
 0.350866795246130E-009
 0.167133173158247E-008
 0.194939176873224E-009
 0.398750034124398E+000
 0.335064700595665E-009
 0.120015879449311E-009
 0.119725215423697E-008
 0.279432331696483E-009
 0.360156849162126E-009
 0.780884350134043E-009
 0.431829690509252E-002
 0.489703477079143E+001
 0.108635464986661E+000
 0.231968269370112E-009
 0.289344784872990E-009
 0.283541612285935E-009
 0.128619467550311E-008
 0.888521469197217E-007
 0.881696767135074E-001
 0.377973809264883E+000
 0.108034136615414E-009
 0.230997829165718E-009
 0.909490514086598E+000
 0.914171794023819E+000
 0.672158502898001E-001
 0.149734680195222E-005
 0.462748219198600E-004
 0.429772721285970E-001
 0.548050303215300E-001
 0.440064354195438E-006
 0.226267175984434E-001
 0.155981962209573E+000
 0.169601569884092E-001
 0.250280578673598E-009
 0.504609417282542E-008
 0.165912143047654E-001
 0.560430282097334E-006
 0.309035281726693E-009
 0.305928731722510E-009
 0.676135777565647E-007
 0.297850704876410E-002
 0.432672546119272E+001
 0.161082882754057E+001
 0.783357597880268E-003
 0.130054228523056E-009
 0.149166596295924E-001
 0.373187600528949E-002
 0.604256612563357E-009
 0.633045408251263E-008
 0.125352123175306E-002
 0.453283208217216E-008
 0.131895807725935E-007
 0.104461497697395E-006
 0.366206195067206E-009
 0.518847402425111E-001
 0.102103002455793E-006
 0.151692476527820E+002
 0.662411554103870E+001
 0.286413431034196E-007
 0.151607414385854E-006
 0.802890799891872E-007
 0.169822808210065E-004
 0.828891701422840E-006
 0.581960810132901E-007
 0.678718533096456E-002
 0.649223500102485E-007
 0.685289951487939E-001
 0.311222497317657E+001
 0.835845349855158E+001
 0.231228269802889E-009
 0.214706467508882E-009
 0.284627783569561E-001
 0.136634301631081E-009
 0.353659536650350E+000
 0.136858824418916E+000
 0.358229692201997E-001
 0.116845460737766E+000
 0.254907190412277E-002
 0.189116239707029E-001
 0.122163506543397E-009
 0.148140587114489E-009
 0.192872356710261E-009
 0.139297021794946E-009
 0.160090734056515E-009
 0.142142631689994E-009
 0.113929444851154E-009
 0.113139414755511E-009
 0.122411855848039E-009
 0.176382077087300E-009
 0.118732970831611E-009
 0.132205940849845E-009
 0.830716796766474E-009
 0.490495659318930E-009
 0.321778285032791E-009
 0.424240064387276E-009
 0.371808523677265E-008
 0.692982132794920E-009
 0.128877613827426E-008
 0.288802848808426E-009
 0.205897897742313E-008
 0.315153852753099E-009
 0.780368562893812E-009
 0.138441029928326E-009
 0.231565686530495E-009
 0.363689095797626E-009
 0.309905142122909E-009
 0.499044744867693E-009
 0.332363076757110E-009
 0.286226321101646E-009
 0.241208084491064E-009
 0.748702813488148E-009
 0.168105505968038E-009
 0.136245040798932E-009
 0.231533110280697E-009
 0.104524078941358E-009
 0.108464275223043E-009
 0.392957932894540E-009
 0.187773311280096E-009
 0.135947502975137E-009
 0.136243727681368E-009
 0.158180127406463E-009
 0.143276114533898E-009
 0.303252072041362E-009
 0.161487360493087E-009
 0.140839559085191E-009
 0.198069298921606E-009
 0.215813447264303E-009
 0.118668502182919E-009
 0.174681251254516E-009
 0.137378384679589E-009
 0.169041026165150E-009
 0.123218892442708E-009
 0.132123954059074E-009
 0.109942188507841E-009
 0.109241660448862E-009
