# vtk DataFile Version 3.0
Unstructured Grid
ASCII
DATASET UNSTRUCTURED_GRID
FIELD FieldData 1
TIME 1 1 float
  0.345833E+02
POINTS          169 double
 0.000000000000000E+000 0.000000000000000E+000 0.000000000000000E+000
 0.100000000000000E+001 0.000000000000000E+000 0.000000000000000E+000
 0.100000000000000E+001 0.100000000000000E+001 0.000000000000000E+000
 0.000000000000000E+000 0.100000000000000E+001 0.000000000000000E+000
 0.125000000000000E+000 0.250000000000000E+000 0.000000000000000E+000
 0.375000000000000E+000 0.250000000000000E+000 0.000000000000000E+000
 0.375000000000000E+000 0.750000000000000E+000 0.000000000000000E+000
 0.125000000000000E+000 0.750000000000000E+000 0.000000000000000E+000
 0.625000000000000E+000 0.250000000000000E+000 0.000000000000000E+000
 0.875000000000000E+000 0.250000000000000E+000 0.000000000000000E+000
 0.875000000000000E+000 0.750000000000000E+000 0.000000000000000E+000
 0.625000000000000E+000 0.750000000000000E+000 0.000000000000000E+000
 0.100000000000000E+001 0.500000000000000E+000 0.000000000000000E+000
 0.000000000000000E+000 0.500000000000000E+000 0.000000000000000E+000
 0.500000000000000E+000 0.000000000000000E+000 0.000000000000000E+000
 0.125000000000000E+000 0.500000000000000E+000 0.000000000000000E+000
 0.000000000000000E+000 0.750000000000000E+000 0.000000000000000E+000
 0.000000000000000E+000 0.250000000000000E+000 0.000000000000000E+000
 0.000000000000000E+000 0.875000000000000E+000 0.000000000000000E+000
 0.000000000000000E+000 0.125000000000000E+000 0.000000000000000E+000
 0.625000000000000E-001 0.812500000000000E+000 0.000000000000000E+000
 0.125000000000000E+000 0.375000000000000E+000 0.000000000000000E+000
 0.125000000000000E+000 0.625000000000000E+000 0.000000000000000E+000
 0.500000000000000E+000 0.100000000000000E+001 0.000000000000000E+000
 0.250000000000000E+000 0.100000000000000E+001 0.000000000000000E+000
 0.125000000000000E+000 0.100000000000000E+001 0.000000000000000E+000
 0.729166666666667E-001 0.885416666666667E+000 0.000000000000000E+000
 0.000000000000000E+000 0.625000000000000E+000 0.000000000000000E+000
 0.625000000000000E-001 0.562500000000000E+000 0.000000000000000E+000
 0.375000000000000E+000 0.500000000000000E+000 0.000000000000000E+000
 0.375000000000000E+000 0.100000000000000E+001 0.000000000000000E+000
 0.250000000000000E+000 0.000000000000000E+000 0.000000000000000E+000
 0.625000000000000E-001 0.187500000000000E+000 0.000000000000000E+000
 0.143518518518519E+000 0.775462962962963E-001 0.000000000000000E+000
 0.156250000000000E+000 0.156250000000000E+000 0.000000000000000E+000
 0.729166666666667E-001 0.114583333333333E+000 0.000000000000000E+000
 0.125000000000000E+000 0.000000000000000E+000 0.000000000000000E+000
 0.250000000000000E+000 0.250000000000000E+000 0.000000000000000E+000
 0.375000000000000E+000 0.000000000000000E+000 0.000000000000000E+000
 0.187500000000000E+000 0.218750000000000E+000 0.000000000000000E+000
 0.312500000000000E+000 0.762453007518797E-001 0.000000000000000E+000
 0.270259392278489E+000 0.159169301283415E+000 0.000000000000000E+000
 0.365310977506407E+000 0.155367112827996E+000 0.000000000000000E+000
 0.312500000000000E+000 0.216265619131990E+000 0.000000000000000E+000
 0.500000000000000E+000 0.189389379011873E+000 0.000000000000000E+000
 0.426456487258648E+000 0.196919158251449E+000 0.000000000000000E+000
 0.451620395371675E+000 0.941243892751461E-001 0.000000000000000E+000
 0.381804756165356E+000 0.871724813114945E-001 0.000000000000000E+000
 0.437500000000000E+000 0.273708879364394E-001 0.000000000000000E+000
 0.000000000000000E+000 0.375000000000000E+000 0.000000000000000E+000
 0.625000000000000E-001 0.312500000000000E+000 0.000000000000000E+000
 0.250000000000000E+000 0.750000000000000E+000 0.000000000000000E+000
 0.158482142857143E+000 0.851934523809524E+000 0.000000000000000E+000
 0.210861885404568E+000 0.921875000000000E+000 0.000000000000000E+000
 0.136017278952732E+000 0.925863358051789E+000 0.000000000000000E+000
 0.625000000000000E-001 0.687500000000000E+000 0.000000000000000E+000
 0.250000000000000E+000 0.437500000000000E+000 0.000000000000000E+000
 0.247528011619582E+000 0.839830719156545E+000 0.000000000000000E+000
 0.312500000000000E+000 0.796669265575374E+000 0.000000000000000E+000
 0.419664368355990E+000 0.875000000000000E+000 0.000000000000000E+000
 0.313183356674252E+000 0.918387829019328E+000 0.000000000000000E+000
 0.312500000000000E+000 0.100000000000000E+001 0.000000000000000E+000
 0.380617553087688E+000 0.931527612480385E+000 0.000000000000000E+000
 0.187500000000000E+000 0.785936956899548E+000 0.000000000000000E+000
 0.350379273974835E+000 0.857317802397078E+000 0.000000000000000E+000
 0.228046514569416E+000 0.817347524546315E-001 0.000000000000000E+000
 0.187500000000000E+000 0.312500000000000E+000 0.000000000000000E+000
 0.625000000000000E-001 0.437500000000000E+000 0.000000000000000E+000
 0.197916666666667E+000 0.385416666666667E+000 0.000000000000000E+000
 0.375000000000000E+000 0.375000000000000E+000 0.000000000000000E+000
 0.750000000000000E+000 0.000000000000000E+000 0.000000000000000E+000
 0.625000000000000E-001 0.959280303030303E+000 0.000000000000000E+000
 0.234375000000000E+000 0.562500000000000E+000 0.000000000000000E+000
 0.187500000000000E+000 0.687500000000000E+000 0.000000000000000E+000
 0.193892045454545E+000 0.618607954545455E+000 0.000000000000000E+000
 0.375000000000000E+000 0.625000000000000E+000 0.000000000000000E+000
 0.283775504647110E+000 0.640801989544002E+000 0.000000000000000E+000
 0.281298714846257E+000 0.504888901855782E+000 0.000000000000000E+000
 0.331282779604339E+000 0.562500000000000E+000 0.000000000000000E+000
 0.338845441361880E+000 0.687500000000000E+000 0.000000000000000E+000
 0.500000000000000E+000 0.775815254846569E+000 0.000000000000000E+000
 0.625000000000000E-001 0.407196969696970E-001 0.000000000000000E+000
 0.328125000000000E+000 0.437500000000000E+000 0.000000000000000E+000
 0.284143518518519E+000 0.340856481481482E+000 0.000000000000000E+000
 0.312500000000000E+000 0.278356481481482E+000 0.000000000000000E+000
 0.625000000000000E+000 0.500000000000000E+000 0.000000000000000E+000
 0.410581328448014E+000 0.312500000000000E+000 0.000000000000000E+000
 0.543730092976870E+000 0.258404709955172E+000 0.000000000000000E+000
 0.625000000000000E+000 0.375000000000000E+000 0.000000000000000E+000
 0.500000000000000E+000 0.404784409423024E+000 0.000000000000000E+000
 0.590394028376448E+000 0.312500000000000E+000 0.000000000000000E+000
 0.467392923590959E+000 0.261422480241605E+000 0.000000000000000E+000
 0.508234229043035E+000 0.327522431406248E+000 0.000000000000000E+000
 0.625000000000000E+000 0.000000000000000E+000 0.000000000000000E+000
 0.537311919648379E+000 0.110523699730938E+000 0.000000000000000E+000
 0.750000000000000E+000 0.250000000000000E+000 0.000000000000000E+000
 0.593146640296986E+000 0.172723366619635E+000 0.000000000000000E+000
 0.623771215502605E+000 0.890722450407200E-001 0.000000000000000E+000
 0.687500000000000E+000 0.454068088573020E-001 0.000000000000000E+000
 0.793069391389776E+000 0.125000000000000E+000 0.000000000000000E+000
 0.695513657869308E+000 0.162768437982326E+000 0.000000000000000E+000
 0.687500000000000E+000 0.250000000000000E+000 0.000000000000000E+000
 0.875000000000000E+000 0.500000000000000E+000 0.000000000000000E+000
 0.727921748554044E+000 0.101601148842529E+000 0.000000000000000E+000
 0.759582972952604E+000 0.183381972603444E+000 0.000000000000000E+000
 0.875000000000000E+000 0.375000000000000E+000 0.000000000000000E+000
 0.718750000000000E+000 0.343750000000000E+000 0.000000000000000E+000
 0.697916666666667E+000 0.437500000000000E+000 0.000000000000000E+000
 0.750000000000000E+000 0.572048611111111E+000 0.000000000000000E+000
 0.787123226950355E+000 0.408133865248227E+000 0.000000000000000E+000
 0.804687500000000E+000 0.320312500000000E+000 0.000000000000000E+000
 0.700214460784314E+000 0.513965482026144E+000 0.000000000000000E+000
 0.783021635712153E+000 0.493366127722916E+000 0.000000000000000E+000
 0.625000000000000E+000 0.625000000000000E+000 0.000000000000000E+000
 0.848380638879200E+000 0.437500000000000E+000 0.000000000000000E+000
 0.562500000000000E+000 0.404604515401992E-001 0.000000000000000E+000
 0.875000000000000E+000 0.625000000000000E+000 0.000000000000000E+000
 0.750000000000000E+000 0.750000000000000E+000 0.000000000000000E+000
 0.697046765904942E+000 0.621060933265583E+000 0.000000000000000E+000
 0.200520833333333E+000 0.494791666666667E+000 0.000000000000000E+000
 0.429642360217793E+000 0.800955091165693E+000 0.000000000000000E+000
 0.453073336954457E+000 0.687500000000000E+000 0.000000000000000E+000
 0.548183885155829E+000 0.693587592964698E+000 0.000000000000000E+000
 0.750000000000000E+000 0.100000000000000E+001 0.000000000000000E+000
 0.573843760532799E+000 0.437500000000000E+000 0.000000000000000E+000
 0.500000000000000E+000 0.550126792242997E+000 0.000000000000000E+000
 0.511972906944656E+000 0.477455600833011E+000 0.000000000000000E+000
 0.437507615834863E+000 0.452402202857321E+000 0.000000000000000E+000
 0.546458141439317E+000 0.614345103225503E+000 0.000000000000000E+000
 0.571440414895569E+000 0.547357897962524E+000 0.000000000000000E+000
 0.450991397292447E+000 0.610087136082382E+000 0.000000000000000E+000
 0.875000000000000E+000 0.000000000000000E+000 0.000000000000000E+000
 0.100000000000000E+001 0.250000000000000E+000 0.000000000000000E+000
 0.100000000000000E+001 0.375000000000000E+000 0.000000000000000E+000
 0.687500000000000E+000 0.700324699898860E+000 0.000000000000000E+000
 0.812500000000000E+000 0.687500000000000E+000 0.000000000000000E+000
 0.804621866531165E+000 0.617121866531165E+000 0.000000000000000E+000
 0.825181931429427E+000 0.549770415540467E+000 0.000000000000000E+000
 0.100000000000000E+001 0.625000000000000E+000 0.000000000000000E+000
 0.100000000000000E+001 0.750000000000000E+000 0.000000000000000E+000
[...]
CELL_DATA          303
SCALARS tdens double 1
LOOKUP_TABLE default
 0.823324562559914E-010
 0.255448460221681E-009
 0.403366918873381E+000
 0.679215526211222E-010
 0.820079052283608E-010
 0.830884787992689E-010
 0.107808347975976E-009
 0.515245028885855E-009
 0.268747719800770E-002
 0.521292944558534E-010
 0.301244493412649E-009
 0.889020573885206E-010
 0.179101821941896E-009
 0.160331040877670E-001
 0.167382345004038E-009
 0.179135316080591E-001
 0.585968584196167E-010
 0.590560146429392E-010
 0.802151632268571E-010
 0.125658128451449E-007
 0.216986824449670E-009
 0.577312262113489E-010
 0.585133429734840E-001
 0.679339340346437E-010
 0.598122581583042E-010
 0.119322462757635E-009
 0.672987051956712E-010
 0.172606459937345E-001
 0.107814299060540E-009
 0.398188014748834E-009
 0.775138278408568E-010
 0.751118645253927E-010
 0.390790716452373E-002
 0.169761539648608E-009
 0.294250214370991E-009
 0.748638709155382E-010
 0.552017652578039E-010
 0.117771229787524E-009
 0.900123243576764E-010
 0.523472846209707E-010
 0.596605536671797E-010
 0.767760820955552E-010
 0.127932061934649E+001
 0.666725567651886E-007
 0.157856677345073E+000
 0.182374290622268E-009
 0.119286034927984E-009
 0.790653309021142E-010
 0.681219574854725E-010
 0.136221761923517E-009
 0.672771582481291E-010
 0.109686039043909E-009
 0.616114425551761E-010
 0.544499006410182E-010
 0.771142360863262E-010
 0.949509009896180E-010
 0.169158785007326E-009
 0.183492694069306E-009
 0.869280765475532E-009
 0.870670429357254E-009
 0.528155056708764E-009
 0.646678916005918E-010
 0.679711715670036E-009
 0.528204947295180E-009
 0.121231559120645E-009
 0.182892193897264E-009
 0.152951573363406E-009
 0.237011886440438E-007
 0.363958645635217E-009
 0.295124389408560E-009
 0.309761042203041E-009
 0.119262910965369E-009
 0.280331874931322E-009
 0.112185744390047E-008
 0.176783514947771E-009
 0.544922688704041E-010
 0.144094266434521E-009
 0.200569246208945E-009
 0.153044963876451E-009
 0.164155726531154E-009
 0.615525020955577E-010
 0.673536467413315E-010
 0.105994893644257E-009
 0.203451676087059E-009
 0.131292602003354E-009
 0.787565522592809E-010
 0.834812682810877E-002
 0.115997939022761E-009
 0.612066450922464E-010
 0.756018868733709E-010
 0.614202539394260E-010
 0.749903637185253E-010
 0.281741253002592E-001
 0.409427411012428E-002
 0.812759047131215E-009
 0.174957951157199E-009
 0.329150148515499E-009
 0.432689049330347E-009
 0.158457554030996E-009
 0.259472166376229E-009
 0.166266220453294E-009
 0.188414963328384E-009
 0.136391526528546E-009
 0.137800580986482E-009
 0.655583125036140E-009
 0.390772223125734E-009
 0.496720738449071E-009
 0.196155214857168E-009
 0.127812442940584E-009
 0.101023468028685E+000
 0.360509430853526E-001
 0.139178855968359E-009
 0.139337493544314E-001
 0.706819227198962E-001
 0.731782067540604E-001
 0.271546633383996E+000
 0.221554903524371E-009
 0.523204606362894E-010
 0.579211399015492E-010
 0.577301598532982E-006
 0.640369280795197E-010
 0.212399227905303E+000
 0.693544557047729E-001
 0.372000899922969E-002
 0.354872067941939E-002
 0.305210829746583E-007
 0.193888404078605E-001
 0.356855658229677E-002
 0.118896504796512E+000
 0.126533478961396E+000
 0.246467622584442E-006
 0.965384546839367E-002
 0.511322619696656E-001
 0.340644276018057E+001
 0.457497016524452E-001
 0.332620249084145E-002
 0.518683216767663E-007
 0.850840014131140E-009
 0.590039755117574E-010
 0.551409734403941E-010
 0.300726133019129E-005
 0.114683525523709E+001
 0.425694633333905E-002
 0.451341017012058E+001
 0.311487409585554E-002
 0.189349722737162E-001
 0.111381536789582E-007
 0.229543396729652E-008
 0.112073019885197E-006
 0.115280495034054E-008
 0.683637176389751E-009
 0.100108818901476E-007
 0.114092053922231E+002
 0.862111321885697E-002
 0.396852790533936E-006
 0.153159096138418E-003
 0.528375571631981E-006
 0.107840989428146E-007
 0.138467303983266E-007
 0.247086359908310E-007
 0.924939063601889E-008
 0.237957919769795E-007
 0.839192105750292E-010
 0.227773632685070E-009
 0.180060438627969E-009
 0.169080484769201E-009
 0.482762995260388E-009
 0.446841683205801E-009
 0.175436068791836E-009
 0.835739152201615E-009
 0.974698950224771E-010
 0.399950903327542E+000
 0.167533805415388E-009
 0.600079955574319E-010
 0.598638066492966E-009
 0.139717167638219E-009
 0.180079326024609E-009
 0.390451505512068E-009
 0.431801441645981E-002
 0.492886672750077E+001
 0.108741608885150E+000
 0.115984695623749E-009
 0.144672840221268E-009
 0.141771269530629E-009
 0.643228998364410E-009
 0.444617043827882E-007
 0.881283107670377E-001
 0.374868362026588E+000
 0.540171877121800E-010
 0.115502201510498E-009
 0.931015350407063E+000
 0.937712945719063E+000
 0.678182489410768E-001
 0.751078762987956E-006
 0.234937434995869E-004
 0.429808077556685E-001
 0.547665344239297E-001
 0.220243587919962E-006
 0.239392788194100E-001
 0.155846532080391E+000
 0.171490226997654E-001
 0.125140953935868E-009
 0.252338499910578E-008
 0.165834571472510E-001
 0.280747718920024E-006
 0.154519541554112E-009
 0.152966108464755E-009
 0.338183802086717E-007
 0.297853970432150E-002
 0.431434784015487E+001
 0.160003075919217E+001
 0.416732735851839E-003
 0.650291758856486E-010
 0.149684543000281E-001
 0.373160871948239E-002
 0.302138126955659E-009
 0.316567917991632E-008
 0.633904539115910E-003
 0.226669549749893E-008
 0.659566005845021E-008
 0.522523823388512E-007
 0.183103917545408E-009
 0.519577616312172E-001
 0.510709726894448E-007
 0.152489535657926E+002
 0.661039807175615E+001
 0.143244319053493E-007
 0.758701611157371E-007
 0.401532888108903E-007
 0.859974556380238E-005
 0.414495192403401E-006
 0.291076912401327E-007
 0.349406483701930E-002
 0.324655938643177E-007
 0.663571816836485E-001
 0.311814597135452E+001
 0.833856413516026E+001
 0.115614780983061E-009
 0.107353542931544E-009
 0.284627571556081E-001
 0.683176339123118E-010
 0.353085113318341E+000
 0.140446871862874E+000
 0.358191078008312E-001
 0.117470868795681E+000
 0.255740317486482E-002
 0.164569616477770E-001
 0.610817880037844E-010
 0.740704405888640E-010
 0.964365531401145E-010
 0.696486535433576E-010
 0.800455365307800E-010
 0.710714250159709E-010
 0.569647607866433E-010
 0.565697467928795E-010
 0.612059723863629E-010
 0.881916251575122E-010
 0.593667216088948E-010
 0.661032219182341E-010
 0.415377838069379E-009
 0.245253399548270E-009
 0.160891386579802E-009
 0.212124692461476E-009
 0.185925489501946E-008
 0.346499686830086E-009
 0.644409401753577E-009
 0.144402904777596E-009
 0.102957506086339E-008
 0.157578970833733E-009
 0.390195527204285E-009
 0.692206625493736E-010
 0.115783496039958E-009
 0.181847585376747E-009
 0.154954563966618E-009
 0.249528816986078E-009
 0.166183594621994E-009
 0.143114290409001E-009
 0.120604896122778E-009
 0.374356577358664E-009
 0.840530000140150E-010
 0.681230844146249E-010
 0.115769967054345E-009
 0.522620605393963E-010
 0.542324066336017E-010
 0.196480530302210E-009
 0.938868906708067E-010
 0.679738750062606E-010
 0.681219780223438E-010
 0.790902657496252E-010
 0.716382292096764E-010
 0.151626665491142E-009
 0.807439056063010E-010
 0.704199190192594E-010
 0.990352260574077E-010
 0.107907103751508E-009
 0.593343165864761E-010
 0.873412053526038E-010
 0.686893370296723E-010
 0.845207847903792E-010
 0.616095314018983E-010
 0.660620922941093E-010
 0.549711303750274E-010
 0.546208633818596E-010
