# vtk DataFile Version 3.0
Unstructured Grid
ASCII
DATASET UNSTRUCTURED_GRID
FIELD FieldData 1
TIME 1 1 float
  0.295833E+02
POINTS          169 double
 0.000000000000000E+000 0.000000000000000E+000 0.000000000000000E+000
 0.100000000000000E+001 0.000000000000000E+000 0.000000000000000E+000
 0.100000000000000E+001 0.100000000000000E+001 0.000000000000000E+000
 0.000000000000000E+000 0.100000000000000E+001 0.000000000000000E+000
 0.125000000000000E+000 0.250000000000000E+000 0.000000000000000E+000
 0.375000000000000E+000 0.250000000000000E+000 0.000000000000000E+000
 0.375000000000000E+000 0.750000000000000E+000 0.000000000000000E+000
 0.125000000000000E+000 0.750000000000000E+000 0.000000000000000E+000
 0.625000000000000E+000 0.250000000000000E+000 0.000000000000000E+000
 0.875000000000000E+000 0.250000000000000E+000 0.000000000000000E+000
 0.875000000000000E+000 0.750000000000000E+000 0.000000000000000E+000
 0.625000000000000E+000 0.750000000000000E+000 0.000000000000000E+000
 0.100000000000000E+001 0.500000000000000E+000 0.000000000000000E+000
 0.000000000000000E+000 0.500000000000000E+000 0.000000000000000E+000
 0.500000000000000E+000 0.000000000000000E+000 0.000000000000000E+000
 0.125000000000000E+000 0.500000000000000E+000 0.000000000000000E+000
 0.000000000000000E+000 0.750000000000000E+000 0.000000000000000E+000
 0.000000000000000E+000 0.250000000000000E+000 0.000000000000000E+000
 0.000000000000000E+000 0.875000000000000E+000 0.000000000000000E+000
 0.000000000000000E+000 0.125000000000000E+000 0.000000000000000E+000
 0.625000000000000E-001 0.812500000000000E+000 0.000000000000000E+000
 0.125000000000000E+000 0.375000000000000E+000 0.000000000000000E+000
 0.125000000000000E+000 0.625000000000000E+000 0.000000000000000E+000
 0.500000000000000E+000 0.100000000000000E+001 0.000000000000000E+000
 0.250000000000000E+000 0.100000000000000E+001 0.000000000000000E+000
 0.125000000000000E+000 0.100000000000000E+001 0.000000000000000E+000
 0.729166666666667E-001 0.885416666666667E+000 0.000000000000000E+000
 0.000000000000000E+000 0.625000000000000E+000 0.000000000000000E+000
 0.625000000000000E-001 0.562500000000000E+000 0.000000000000000E+000
 0.375000000000000E+000 0.500000000000000E+000 0.000000000000000E+000
 0.375000000000000E+000 0.100000000000000E+001 0.000000000000000E+000
 0.250000000000000E+000 0.000000000000000E+000 0.000000000000000E+000
 0.625000000000000E-001 0.187500000000000E+000 0.000000000000000E+000
 0.143518518518519E+000 0.775462962962963E-001 0.000000000000000E+000
 0.156250000000000E+000 0.156250000000000E+000 0.000000000000000E+000
 0.729166666666667E-001 0.114583333333333E+000 0.000000000000000E+000
 0.125000000000000E+000 0.000000000000000E+000 0.000000000000000E+000
 0.250000000000000E+000 0.250000000000000E+000 0.000000000000000E+000
 0.375000000000000E+000 0.000000000000000E+000 0.000000000000000E+000
 0.187500000000000E+000 0.218750000000000E+000 0.000000000000000E+000
 0.312500000000000E+000 0.762453007518797E-001 0.000000000000000E+000
 0.270259392278489E+000 0.159169301283415E+000 0.000000000000000E+000
 0.365310977506407E+000 0.155367112827996E+000 0.000000000000000E+000
 0.312500000000000E+000 0.216265619131990E+000 0.000000000000000E+000
 0.500000000000000E+000 0.189389379011873E+000 0.000000000000000E+000
 0.426456487258648E+000 0.196919158251449E+000 0.000000000000000E+000
 0.451620395371675E+000 0.941243892751461E-001 0.000000000000000E+000
 0.381804756165356E+000 0.871724813114945E-001 0.000000000000000E+000
 0.437500000000000E+000 0.273708879364394E-001 0.000000000000000E+000
 0.000000000000000E+000 0.375000000000000E+000 0.000000000000000E+000
 0.625000000000000E-001 0.312500000000000E+000 0.000000000000000E+000
 0.250000000000000E+000 0.750000000000000E+000 0.000000000000000E+000
 0.158482142857143E+000 0.851934523809524E+000 0.000000000000000E+000
 0.210861885404568E+000 0.921875000000000E+000 0.000000000000000E+000
 0.136017278952732E+000 0.925863358051789E+000 0.000000000000000E+000
 0.625000000000000E-001 0.687500000000000E+000 0.000000000000000E+000
 0.250000000000000E+000 0.437500000000000E+000 0.000000000000000E+000
 0.247528011619582E+000 0.839830719156545E+000 0.000000000000000E+000
 0.312500000000000E+000 0.796669265575374E+000 0.000000000000000E+000
 0.419664368355990E+000 0.875000000000000E+000 0.000000000000000E+000
 0.313183356674252E+000 0.918387829019328E+000 0.000000000000000E+000
 0.312500000000000E+000 0.100000000000000E+001 0.000000000000000E+000
 0.380617553087688E+000 0.931527612480385E+000 0.000000000000000E+000
 0.187500000000000E+000 0.785936956899548E+000 0.000000000000000E+000
 0.350379273974835E+000 0.857317802397078E+000 0.000000000000000E+000
 0.228046514569416E+000 0.817347524546315E-001 0.000000000000000E+000
 0.187500000000000E+000 0.312500000000000E+000 0.000000000000000E+000
 0.625000000000000E-001 0.437500000000000E+000 0.000000000000000E+000
 0.197916666666667E+000 0.385416666666667E+000 0.000000000000000E+000
 0.375000000000000E+000 0.375000000000000E+000 0.000000000000000E+000
 0.750000000000000E+000 0.000000000000000E+000 0.000000000000000E+000
 0.625000000000000E-001 0.959280303030303E+000 0.000000000000000E+000
 0.234375000000000E+000 0.562500000000000E+000 0.000000000000000E+000
 0.187500000000000E+000 0.687500000000000E+000 0.000000000000000E+000
 0.193892045454545E+000 0.618607954545455E+000 0.000000000000000E+000
 0.375000000000000E+000 0.625000000000000E+000 0.000000000000000E+000
 0.283775504647110E+000 0.640801989544002E+000 0.000000000000000E+000
 0.281298714846257E+000 0.504888901855782E+000 0.000000000000000E+000
 0.331282779604339E+000 0.562500000000000E+000 0.000000000000000E+000
 0.338845441361880E+000 0.687500000000000E+000 0.000000000000000E+000
 0.500000000000000E+000 0.775815254846569E+000 0.000000000000000E+000
 0.625000000000000E-001 0.407196969696970E-001 0.000000000000000E+000
 0.328125000000000E+000 0.437500000000000E+000 0.000000000000000E+000
 0.284143518518519E+000 0.340856481481482E+000 0.000000000000000E+000
 0.312500000000000E+000 0.278356481481482E+000 0.000000000000000E+000
 0.625000000000000E+000 0.500000000000000E+000 0.000000000000000E+000
 0.410581328448014E+000 0.312500000000000E+000 0.000000000000000E+000
 0.543730092976870E+000 0.258404709955172E+000 0.000000000000000E+000
 0.625000000000000E+000 0.375000000000000E+000 0.000000000000000E+000
 0.500000000000000E+000 0.404784409423024E+000 0.000000000000000E+000
 0.590394028376448E+000 0.312500000000000E+000 0.000000000000000E+000
 0.467392923590959E+000 0.261422480241605E+000 0.000000000000000E+000
 0.508234229043035E+000 0.327522431406248E+000 0.000000000000000E+000
 0.625000000000000E+000 0.000000000000000E+000 0.000000000000000E+000
 0.537311919648379E+000 0.110523699730938E+000 0.000000000000000E+000
 0.750000000000000E+000 0.250000000000000E+000 0.000000000000000E+000
 0.593146640296986E+000 0.172723366619635E+000 0.000000000000000E+000
 0.623771215502605E+000 0.890722450407200E-001 0.000000000000000E+000
 0.687500000000000E+000 0.454068088573020E-001 0.000000000000000E+000
 0.793069391389776E+000 0.125000000000000E+000 0.000000000000000E+000
 0.695513657869308E+000 0.162768437982326E+000 0.000000000000000E+000
 0.687500000000000E+000 0.250000000000000E+000 0.000000000000000E+000
 0.875000000000000E+000 0.500000000000000E+000 0.000000000000000E+000
 0.727921748554044E+000 0.101601148842529E+000 0.000000000000000E+000
 0.759582972952604E+000 0.183381972603444E+000 0.000000000000000E+000
 0.875000000000000E+000 0.375000000000000E+000 0.000000000000000E+000
 0.718750000000000E+000 0.343750000000000E+000 0.000000000000000E+000
 0.697916666666667E+000 0.437500000000000E+000 0.000000000000000E+000
 0.750000000000000E+000 0.572048611111111E+000 0.000000000000000E+000
 0.787123226950355E+000 0.408133865248227E+000 0.000000000000000E+000
 0.804687500000000E+000 0.320312500000000E+000 0.000000000000000E+000
 0.700214460784314E+000 0.513965482026144E+000 0.000000000000000E+000
 0.783021635712153E+000 0.493366127722916E+000 0.000000000000000E+000
 0.625000000000000E+000 0.625000000000000E+000 0.000000000000000E+000
 0.848380638879200E+000 0.437500000000000E+000 0.000000000000000E+000
 0.562500000000000E+000 0.404604515401992E-001 0.000000000000000E+000
 0.875000000000000E+000 0.625000000000000E+000 0.000000000000000E+000
 0.750000000000000E+000 0.750000000000000E+000 0.000000000000000E+000
 0.697046765904942E+000 0.621060933265583E+000 0.000000000000000E+000
 0.200520833333333E+000 0.494791666666667E+000 0.000000000000000E+000
 0.429642360217793E+000 0.800955091165693E+000 0.000000000000000E+000
 0.453073336954457E+000 0.687500000000000E+000 0.000000000000000E+000
 0.548183885155829E+000 0.693587592964698E+000 0.000000000000000E+000
 0.750000000000000E+000 0.100000000000000E+001 0.000000000000000E+000
 0.573843760532799E+000 0.437500000000000E+000 0.000000000000000E+000
 0.500000000000000E+000 0.550126792242997E+000 0.000000000000000E+000
 0.511972906944656E+000 0.477455600833011E+000 0.000000000000000E+000
 0.437507615834863E+000 0.452402202857321E+000 0.000000000000000E+000
 0.546458141439317E+000 0.614345103225503E+000 0.000000000000000E+000
 0.571440414895569E+000 0.547357897962524E+000 0.000000000000000E+000
 0.450991397292447E+000 0.610087136082382E+000 0.000000000000000E+000
 0.875000000000000E+000 0.000000000000000E+000 0.000000000000000E+000
 0.100000000000000E+001 0.250000000000000E+000 0.000000000000000E+000
 0.100000000000000E+001 0.375000000000000E+000 0.000000000000000E+000
 0.687500000000000E+000 0.700324699898860E+000 0.000000000000000E+000
 0.812500000000000E+000 0.687500000000000E+000 0.000000000000000E+000
 0.804621866531165E+000 0.617121866531165E+000 0.000000000000000E+000
 0.825181931429427E+000 0.549770415540467E+000 0.000000000000000E+000
 0.100000000000000E+001 0.625000000000000E+000 0.000000000000000E+000
 0.100000000000000E+001 0.750000000000000E+000 0.000000000000000E+000
[...]
CELL_DATA          303
SCALARS tdens double 1
LOOKUP_TABLE default
 0.263454114834028E-008
 0.817154926146071E-008
 0.424947061898497E+000
 0.217333014717298E-008
 0.262417502133179E-008
 0.265875536907122E-008
 0.344968655029341E-008
 0.164784792690588E-007
 0.268867471806717E-002
 0.166812773991277E-008
 0.963587066723980E-008
 0.284477327584318E-008
 0.573045067133689E-008
 0.125057323091657E-001
 0.535532896895769E-008
 0.282450188047268E-001
 0.187493963597980E-008
 0.188977682960473E-008
 0.256574359020147E-008
 0.401034000494310E-006
 0.694276322192560E-008
 0.184723064803417E-008
 0.580913176527441E-001
 0.217384875523007E-008
 0.191380826581668E-008
 0.381817404857665E-008
 0.215352917295553E-008
 0.136197330861944E-001
 0.344908101830910E-008
 0.127407538400137E-007
 0.248038508984091E-008
 0.240348235528529E-008
 0.391908117840087E-002
 0.543222718954566E-008
 0.941252665372918E-008
 0.239559843968907E-008
 0.176644711379458E-008
 0.376856522485713E-008
 0.288031926767226E-008
 0.167511020846990E-008
 0.190897004826924E-008
 0.245565327156822E-008
 0.114282939335859E+001
 0.211610036999519E-005
 0.159399128304609E+000
 0.583483454487465E-008
 0.381690749597682E-008
 0.253002433147825E-008
 0.217986084773334E-008
 0.435877457977921E-008
 0.215283178193075E-008
 0.350976377190650E-008
 0.197154243808410E-008
 0.174238732359104E-008
 0.246759665591042E-008
 0.303833791343523E-008
 0.541212437107928E-008
 0.587158887211384E-008
 0.277871030556140E-007
 0.278387699930726E-007
 0.168897591277564E-007
 0.206934290261651E-008
 0.217450439728415E-007
 0.168931701330536E-007
 0.387910065475238E-008
 0.585178244836730E-008
 0.489374171490946E-008
 0.754851802429780E-006
 0.116439351047932E-007
 0.944212281036829E-008
 0.990798849439166E-008
 0.381616405204457E-008
 0.896725734167858E-008
 0.358510786865263E-007
 0.565610092772573E-008
 0.174374462376258E-008
 0.461047490940612E-008
 0.641671670071237E-008
 0.489672042586587E-008
 0.525209648212330E-008
 0.196966295044074E-008
 0.215514224466176E-008
 0.339098137735506E-008
 0.651013039894636E-008
 0.420108589141368E-008
 0.252016155525179E-008
 0.739915279967041E-002
 0.371168210538039E-008
 0.195859255783754E-008
 0.241921568514597E-008
 0.196542834061937E-008
 0.239956988469944E-008
 0.311920864072150E-001
 0.413657817612875E-002
 0.259840709361229E-007
 0.559801709801980E-008
 0.105306910781137E-007
 0.138387607522974E-007
 0.506986498907393E-008
 0.830160986685130E-008
 0.531970912001913E-008
 0.602802846075712E-008
 0.436407700860062E-008
 0.440914426500436E-008
 0.209753534739609E-007
 0.125037339027192E-007
 0.158862633668879E-007
 0.627562160637321E-008
 0.408982979299250E-008
 0.992813960187853E-001
 0.361263415510662E-001
 0.445331362975841E-008
 0.128521231776280E-001
 0.707683761000342E-001
 0.709258222657456E-001
 0.261634680438922E+000
 0.708801734732106E-008
 0.167424732597987E-008
 0.185332709054548E-008
 0.180341397493368E-004
 0.204915791175523E-008
 0.228281378857082E+000
 0.693123483432989E-001
 0.371356500296349E-002
 0.351701607601117E-002
 0.975831655323655E-006
 0.310125680437221E-001
 0.235805555145267E-001
 0.181513228204775E+000
 0.131768218295789E+000
 0.769684869393185E-005
 0.965196547398839E-002
 0.202102263023825E+000
 0.286428779451929E+001
 0.453514255307171E-001
 0.333438414636289E-002
 0.165179739034599E-005
 0.272049896744962E-007
 0.188810840524746E-008
 0.176450051801177E-008
 0.881664054505951E-004
 0.103087630790629E+001
 0.619359558625663E-002
 0.437216049217887E+001
 0.202688505614867E-002
 0.194607176893219E-001
 0.355468886092222E-006
 0.733497706465173E-007
 0.355382938780986E-005
 0.368445432653178E-007
 0.218577265364660E-007
 0.318948285607840E-006
 0.110091717287848E+002
 0.859835322703488E-002
 0.126851484315146E-004
 0.218093544065108E-002
 0.164925897184680E-004
 0.343864847151704E-006
 0.441037775021958E-006
 0.786502073297089E-006
 0.295048588907663E-006
 0.758525988818417E-006
 0.268534680259241E-008
 0.728748735517827E-008
 0.576076164020924E-008
 0.540965269714398E-008
 0.154410085270027E-007
 0.142933919087063E-007
 0.561298425966857E-008
 0.267171985917836E-007
 0.311892546904179E-008
 0.394577412453122E+000
 0.536055394584647E-008
 0.192023569290541E-008
 0.191521106111256E-007
 0.447058589355097E-008
 0.576221124547170E-008
 0.124910808531887E-007
 0.432111542612954E-002
 0.469458547931669E+001
 0.107900023790595E+000
 0.371130674755157E-008
 0.462936806091988E-008
 0.453651293678339E-008
 0.205360475425132E-007
 0.140970525681171E-005
 0.883927702421365E-001
 0.393162946840622E+000
 0.172850989343677E-008
 0.369488779428534E-008
 0.792472352348595E+000
 0.778976792345261E+000
 0.653389041407371E-001
 0.231811648317679E-004
 0.614251998997043E-003
 0.429541639573717E-001
 0.552583572887671E-001
 0.697139090123630E-005
 0.116867085576369E-001
 0.155643069681429E+000
 0.172462791143273E-001
 0.400427186014873E-008
 0.806269003655855E-007
 0.164900877641751E-001
 0.879392054086064E-005
 0.494393426562117E-008
 0.489428258819906E-008
 0.107799691417921E-005
 0.297797703587097E-002
 0.430336455457608E+001
 0.160258345918645E+001
 0.630476062313992E-002
 0.208019301760594E-008
 0.144941420239154E-001
 0.373308050547887E-002
 0.966488912803843E-008
 0.101139290485603E-006
 0.177876542040957E-001
 0.724337463709432E-007
 0.210748723257719E-006
 0.166430707507765E-005
 0.585903089606285E-008
 0.514270487278382E-001
 0.162770368250456E-005
 0.146656243779674E+002
 0.651653578605173E+001
 0.457043474846687E-006
 0.240497221431263E-005
 0.128169729061746E-005
 0.238277811485670E-003
 0.132462574393265E-004
 0.927980946297967E-006
 0.815416946866974E-001
 0.103731453318960E-005
 0.934088543700192E-001
 0.305631887990203E+001
 0.819837758564788E+001
 0.369944026669753E-008
 0.343520118169875E-008
 0.284686136254563E-001
 0.218599016852234E-008
 0.360110717670680E+000
 0.125816816527523E+000
 0.358681727647976E-001
 0.114641233790075E+000
 0.251064555998822E-002
 0.268229024808784E-001
 0.195460440174680E-008
 0.237020100754627E-008
 0.308583496879630E-008
 0.222870567670167E-008
 0.256139576338947E-008
 0.227424609796895E-008
 0.182285847985971E-008
 0.181021767312496E-008
 0.195857519338458E-008
 0.282192134939283E-008
 0.189964961176957E-008
 0.211521263900106E-008
 0.132850981437943E-007
 0.784610483612180E-008
 0.514771569802410E-008
 0.678631309370915E-008
 0.594198340130522E-007
 0.110848883518195E-007
 0.206134511467458E-007
 0.462036037748042E-008
 0.329156240259870E-007
 0.504179138863914E-008
 0.124822097783082E-007
 0.221500764251687E-008
 0.370483713724132E-008
 0.581802974761074E-008
 0.495782877594823E-008
 0.798260354426120E-008
 0.531713524782238E-008
 0.457925091766289E-008
 0.385904953865478E-008
 0.119775545056903E-007
 0.268960722414841E-008
 0.217973611538903E-008
 0.370341543488283E-008
 0.167237946314578E-008
 0.173534420143530E-008
 0.628681368719777E-008
 0.300429550969437E-008
 0.217511954886543E-008
 0.217986213399013E-008
 0.253081567136254E-008
 0.229236132182496E-008
 0.485182738727592E-008
 0.258372395854187E-008
 0.225338726276624E-008
 0.316891990081832E-008
 0.345289076544238E-008
 0.189867457110039E-008
 0.279470981147542E-008
 0.219800641016285E-008
 0.270456746617578E-008
 0.197147433419771E-008
 0.211394549323422E-008
 0.175906316671957E-008
 0.174785569945597E-008
