# vtk DataFile Version 3.0
Unstructured Grid
ASCII
DATASET UNSTRUCTURED_GRID
FIELD FieldData 1
TIME 1 1 float
  0.245833E+02
POINTS          169 double
 0.000000000000000E+000 0.000000000000000E+000 0.000000000000000E+000
 0.100000000000000E+001 0.000000000000000E+000 0.000000000000000E+000
 0.100000000000000E+001 0.100000000000000E+001 0.000000000000000E+000
 0.000000000000000E+000 0.100000000000000E+001 0.000000000000000E+000
 0.125000000000000E+000 0.250000000000000E+000 0.000000000000000E+000
 0.375000000000000E+000 0.250000000000000E+000 0.000000000000000E+000
 0.375000000000000E+000 0.750000000000000E+000 0.000000000000000E+000
 0.125000000000000E+000 0.750000000000000E+000 0.000000000000000E+000
 0.625000000000000E+000 0.250000000000000E+000 0.000000000000000E+000
 0.875000000000000E+000 0.250000000000000E+000 0.000000000000000E+000
 0.875000000000000E+000 0.750000000000000E+000 0.000000000000000E+000
 0.625000000000000E+000 0.750000000000000E+000 0.000000000000000E+000
 0.100000000000000E+001 0.500000000000000E+000 0.000000000000000E+000
 0.000000000000000E+000 0.500000000000000E+000 0.000000000000000E+000
 0.500000000000000E+000 0.000000000000000E+000 0.000000000000000E+000
 0.125000000000000E+000 0.500000000000000E+000 0.000000000000000E+000
 0.000000000000000E+000 0.750000000000000E+000 0.000000000000000E+000
 0.000000000000000E+000 0.250000000000000E+000 0.000000000000000E+000
 0.000000000000000E+000 0.875000000000000E+000 0.000000000000000E+000
 0.000000000000000E+000 0.125000000000000E+000 0.000000000000000E+000
 0.625000000000000E-001 0.812500000000000E+000 0.000000000000000E+000
 0.125000000000000E+000 0.375000000000000E+000 0.000000000000000E+000
 0.125000000000000E+000 0.625000000000000E+000 0.000000000000000E+000
 0.500000000000000E+000 0.100000000000000E+001 0.000000000000000E+000
 0.250000000000000E+000 0.100000000000000E+001 0.000000000000000E+000
 0.125000000000000E+000 0.100000000000000E+001 0.000000000000000E+000
 0.729166666666667E-001 0.885416666666667E+000 0.000000000000000E+000
 0.000000000000000E+000 0.625000000000000E+000 0.000000000000000E+000
 0.625000000000000E-001 0.562500000000000E+000 0.000000000000000E+000
 0.375000000000000E+000 0.500000000000000E+000 0.000000000000000E+000
 0.375000000000000E+000 0.100000000000000E+001 0.000000000000000E+000
 0.250000000000000E+000 0.000000000000000E+000 0.000000000000000E+000
 0.625000000000000E-001 0.187500000000000E+000 0.000000000000000E+000
 0.143518518518519E+000 0.775462962962963E-001 0.000000000000000E+000
 0.156250000000000E+000 0.156250000000000E+000 0.000000000000000E+000
 0.729166666666667E-001 0.114583333333333E+000 0.000000000000000E+000
 0.125000000000000E+000 0.000000000000000E+000 0.000000000000000E+000
 0.250000000000000E+000 0.250000000000000E+000 0.000000000000000E+000
 0.375000000000000E+000 0.000000000000000E+000 0.000000000000000E+000
 0.187500000000000E+000 0.218750000000000E+000 0.000000000000000E+000
 0.312500000000000E+000 0.762453007518797E-001 0.000000000000000E+000
 0.270259392278489E+000 0.159169301283415E+000 0.000000000000000E+000
 0.365310977506407E+000 0.155367112827996E+000 0.000000000000000E+000
 0.312500000000000E+000 0.216265619131990E+000 0.000000000000000E+000
 0.500000000000000E+000 0.189389379011873E+000 0.000000000000000E+000
 0.426456487258648E+000 0.196919158251449E+000 0.000000000000000E+000
 0.451620395371675E+000 0.941243892751461E-001 0.000000000000000E+000
 0.381804756165356E+000 0.871724813114945E-001 0.000000000000000E+000
 0.437500000000000E+000 0.273708879364394E-001 0.000000000000000E+000
 0.000000000000000E+000 0.375000000000000E+000 0.000000000000000E+000
 0.625000000000000E-001 0.312500000000000E+000 0.000000000000000E+000
 0.250000000000000E+000 0.750000000000000E+000 0.000000000000000E+000
 0.158482142857143E+000 0.851934523809524E+000 0.000000000000000E+000
 0.210861885404568E+000 0.921875000000000E+000 0.000000000000000E+000
 0.136017278952732E+000 0.925863358051789E+000 0.000000000000000E+000
 0.625000000000000E-001 0.687500000000000E+000 0.000000000000000E+000
 0.250000000000000E+000 0.437500000000000E+000 0.000000000000000E+000
 0.247528011619582E+000 0.839830719156545E+000 0.000000000000000E+000
 0.312500000000000E+000 0.796669265575374E+000 0.000000000000000E+000
 0.419664368355990E+000 0.875000000000000E+000 0.000000000000000E+000
 0.313183356674252E+000 0.918387829019328E+000 0.000000000000000E+000
 0.312500000000000E+000 0.100000000000000E+001 0.000000000000000E+000
 0.380617553087688E+000 0.931527612480385E+000 0.000000000000000E+000
 0.187500000000000E+000 0.785936956899548E+000 0.000000000000000E+000
 0.350379273974835E+000 0.857317802397078E+000 0.000000000000000E+000
 0.228046514569416E+000 0.817347524546315E-001 0.000000000000000E+000
 0.187500000000000E+000 0.312500000000000E+000 0.000000000000000E+000
 0.625000000000000E-001 0.437500000000000E+000 0.000000000000000E+000
 0.197916666666667E+000 0.385416666666667E+000 0.000000000000000E+000
 0.375000000000000E+000 0.375000000000000E+000 0.000000000000000E+000
 0.750000000000000E+000 0.000000000000000E+000 0.000000000000000E+000
 0.625000000000000E-001 0.959280303030303E+000 0.000000000000000E+000
 0.234375000000000E+000 0.562500000000000E+000 0.000000000000000E+000
 0.187500000000000E+000 0.687500000000000E+000 0.000000000000000E+000
 0.193892045454545E+000 0.618607954545455E+000 0.000000000000000E+000
 0.375000000000000E+000 0.625000000000000E+000 0.000000000000000E+000
 0.283775504647110E+000 0.640801989544002E+000 0.000000000000000E+000
 0.281298714846257E+000 0.504888901855782E+000 0.000000000000000E+000
 0.331282779604339E+000 0.562500000000000E+000 0.000000000000000E+000
 0.338845441361880E+000 0.687500000000000E+000 0.000000000000000E+000
 0.500000000000000E+000 0.775815254846569E+000 0.000000000000000E+000
 0.625000000000000E-001 0.407196969696970E-001 0.000000000000000E+000
 0.328125000000000E+000 0.437500000000000E+000 0.000000000000000E+000
 0.284143518518519E+000 0.340856481481482E+000 0.000000000000000E+000
 0.312500000000000E+000 0.278356481481482E+000 0.000000000000000E+000
 0.625000000000000E+000 0.500000000000000E+000 0.000000000000000E+000
 0.410581328448014E+000 0.312500000000000E+000 0.000000000000000E+000
 0.543730092976870E+000 0.258404709955172E+000 0.000000000000000E+000
 0.625000000000000E+000 0.375000000000000E+000 0.000000000000000E+000
 0.500000000000000E+000 0.404784409423024E+000 0.000000000000000E+000
 0.590394028376448E+000 0.312500000000000E+000 0.000000000000000E+000
 0.467392923590959E+000 0.261422480241605E+000 0.000000000000000E+000
 0.508234229043035E+000 0.327522431406248E+000 0.000000000000000E+000
 0.625000000000000E+000 0.000000000000000E+000 0.000000000000000E+000
 0.537311919648379E+000 0.110523699730938E+000 0.000000000000000E+000
 0.750000000000000E+000 0.250000000000000E+000 0.000000000000000E+000
 0.593146640296986E+000 0.172723366619635E+000 0.000000000000000E+000
 0.623771215502605E+000 0.890722450407200E-001 0.000000000000000E+000
 0.687500000000000E+000 0.454068088573020E-001 0.000000000000000E+000
 0.793069391389776E+000 0.125000000000000E+000 0.000000000000000E+000
 0.695513657869308E+000 0.162768437982326E+000 0.000000000000000E+000
 0.687500000000000E+000 0.250000000000000E+000 0.000000000000000E+000
 0.875000000000000E+000 0.500000000000000E+000 0.000000000000000E+000
 0.727921748554044E+000 0.101601148842529E+000 0.000000000000000E+000
 0.759582972952604E+000 0.183381972603444E+000 0.000000000000000E+000
 0.875000000000000E+000 0.375000000000000E+000 0.000000000000000E+000
 0.718750000000000E+000 0.343750000000000E+000 0.000000000000000E+000
 0.697916666666667E+000 0.437500000000000E+000 0.000000000000000E+000
 0.750000000000000E+000 0.572048611111111E+000 0.000000000000000E+000
 0.787123226950355E+000 0.408133865248227E+000 0.000000000000000E+000
 0.804687500000000E+000 0.320312500000000E+000 0.000000000000000E+000
 0.700214460784314E+000 0.513965482026144E+000 0.000000000000000E+000
 0.783021635712153E+000 0.493366127722916E+000 0.000000000000000E+000
 0.625000000000000E+000 0.625000000000000E+000 0.000000000000000E+000
 0.848380638879200E+000 0.437500000000000E+000 0.000000000000000E+000
 0.562500000000000E+000 0.404604515401992E-001 0.000000000000000E+000
 0.875000000000000E+000 0.625000000000000E+000 0.000000000000000E+000
 0.750000000000000E+000 0.750000000000000E+000 0.000000000000000E+000
 0.697046765904942E+000 0.621060933265583E+000 0.000000000000000E+000
 0.200520833333333E+000 0.494791666666667E+000 0.000000000000000E+000
 0.429642360217793E+000 0.800955091165693E+000 0.000000000000000E+000
 0.453073336954457E+000 0.687500000000000E+000 0.000000000000000E+000
 0.548183885155829E+000 0.693587592964698E+000 0.000000000000000E+000
 0.750000000000000E+000 0.100000000000000E+001 0.000000000000000E+000
 0.573843760532799E+000 0.437500000000000E+000 0.000000000000000E+000
 0.500000000000000E+000 0.550126792242997E+000 0.000000000000000E+000
 0.511972906944656E+000 0.477455600833011E+000 0.000000000000000E+000
 0.437507615834863E+000 0.452402202857321E+000 0.000000000000000E+000
 0.546458141439317E+000 0.614345103225503E+000 0.000000000000000E+000
 0.571440414895569E+000 0.547357897962524E+000 0.000000000000000E+000
 0.450991397292447E+000 0.610087136082382E+000 0.000000000000000E+000
 0.875000000000000E+000 0.000000000000000E+000 0.000000000000000E+000
 0.100000000000000E+001 0.250000000000000E+000 0.000000000000000E+000
 0.100000000000000E+001 0.375000000000000E+000 0.000000000000000E+000
 0.687500000000000E+000 0.700324699898860E+000 0.000000000000000E+000
 0.812500000000000E+000 0.687500000000000E+000 0.000000000000000E+000
 0.804621866531165E+000 0.617121866531165E+000 0.000000000000000E+000
 0.825181931429427E+000 0.549770415540467E+000 0.000000000000000E+000
 0.100000000000000E+001 0.625000000000000E+000 0.000000000000000E+000
 0.100000000000000E+001 0.750000000000000E+000 0.000000000000000E+000
[...]
CELL_DATA          303
SCALARS tdens double 1
LOOKUP_TABLE default
 0.842880178842214E-007
 0.260970880577256E-006
 0.440411851114644E+000
 0.695182877478097E-007
 0.839588376241329E-007
 0.850652271270166E-007
 0.110355271422630E-006
 0.525605008734118E-006
 0.270840863371461E-002
 0.533785069763882E-007
 0.307618159167293E-006
 0.910159136203274E-007
 0.183229674920775E-006
 0.925069982575882E-002
 0.171203801654940E-006
 0.122788783665332E+000
 0.599677843815409E-007
 0.604697006204020E-007
 0.818989536306512E-007
 0.126358326888817E-004
 0.222024919457393E-006
 0.590792748052832E-007
 0.558188241443847E-001
 0.695560219637594E-007
 0.612073551762910E-007
 0.122152283775605E-006
 0.689070234544979E-007
 0.144884514807104E-001
 0.110193222202037E-006
 0.407466601059545E-006
 0.793621410494516E-007
 0.768941567464440E-007
 0.394310584049333E-002
 0.173798073355012E-006
 0.300561157524940E-006
 0.766499938672510E-007
 0.565244146606745E-007
 0.120569964679196E-006
 0.921548873082324E-007
 0.536028219766278E-007
 0.610586083999762E-007
 0.783687327289736E-007
 0.748926484355093E+000
 0.646056340966592E-004
 0.187182981329553E+000
 0.186504450373652E-006
 0.122097725988347E-006
 0.809490637345193E-007
 0.697480964317279E-007
 0.139420571013103E-006
 0.688839962742353E-007
 0.112277395750971E-006
 0.630851153225030E-007
 0.557547030283555E-007
 0.789524316210562E-007
 0.972105584991988E-007
 0.173009484198949E-006
 0.187861268643562E-006
 0.883698194092393E-006
 0.886120318098725E-006
 0.538381111423820E-006
 0.662136981078566E-007
 0.694824773400943E-006
 0.538746714302754E-006
 0.124073661760786E-006
 0.187111476036759E-006
 0.156467555271592E-006
 0.235050795655108E-004
 0.372041845122116E-006
 0.301787556767362E-006
 0.316248186398144E-006
 0.122071335639373E-006
 0.286323117788338E-006
 0.113837362630682E-005
 0.180812900288405E-006
 0.557982178133903E-007
 0.147433938898893E-006
 0.205054274021624E-006
 0.156561327770620E-006
 0.167902155774091E-006
 0.630259942027874E-007
 0.689325771531841E-007
 0.108358568010827E-006
 0.208251952603849E-006
 0.134381844723589E-006
 0.806352655366085E-007
 0.685843730710686E-002
 0.118726031490158E-006
 0.626709047434586E-007
 0.774057132635644E-007
 0.628903593585453E-007
 0.767642017065528E-007
 0.374994375921535E-001
 0.418134893145382E-002
 0.827246336914083E-006
 0.179018108411792E-006
 0.336617316122268E-006
 0.441498773675857E-006
 0.162092216047071E-006
 0.265379042897234E-006
 0.170081192957021E-006
 0.192666675596671E-006
 0.139566213913928E-006
 0.141004131532197E-006
 0.670451954757781E-006
 0.399898726794911E-006
 0.506785752328575E-006
 0.200573207371544E-006
 0.130843993509255E-006
 0.100633407593853E+000
 0.361695421452280E-001
 0.142430429441279E-006
 0.722854313761270E-002
 0.710264647491819E-001
 0.665679280500245E-001
 0.255024010119775E+000
 0.226495113429264E-006
 0.535739328584580E-007
 0.592793661689944E-007
 0.502023931903072E-003
 0.655682175478504E-007
 0.230900970494888E+000
 0.696301151131793E-001
 0.377411250798145E-002
 0.340314287910644E-002
 0.310383268760580E-004
 0.908305677199983E-001
 0.115630901557308E+000
 0.386725007700101E+000
 0.139884287204632E+000
 0.214698777295193E-003
 0.921505155113906E-002
 0.471945271870640E+000
 0.223205786550742E+001
 0.439571541772256E-001
 0.338422913035842E-002
 0.514209661897017E-004
 0.866567957763674E-006
 0.604161209711238E-007
 0.564621163657627E-007
 0.153745514709087E-002
 0.793430184559970E+000
 0.872323570746602E-002
 0.399533472022572E+001
 0.162068439347706E-002
 0.193399363062403E-001
 0.112029307034895E-004
 0.232807341359715E-005
 0.107997974547986E-003
 0.117075915052173E-005
 0.696015635749817E-006
 0.995412542054460E-005
 0.100216799311287E+002
 0.824597906565557E-002
 0.403178297188215E-003
 0.856912807301827E-002
 0.458613707190282E-003
 0.107816544725506E-004
 0.137415257187776E-004
 0.244171373235099E-004
 0.927157650982714E-005
 0.237420599354120E-004
 0.859186623302055E-007
 0.232965540036076E-006
 0.184126860346341E-006
 0.172937931625000E-006
 0.492740818492994E-006
 0.456366630173685E-006
 0.179436116684684E-006
 0.850083209768367E-006
 0.997851926681415E-007
 0.392270745384092E+000
 0.171440503148745E-006
 0.614438696883046E-007
 0.612091640288414E-006
 0.142991752238509E-006
 0.184330698175785E-006
 0.399106349892028E-006
 0.433173042759011E-002
 0.417830026927488E+001
 0.106466474733925E+000
 0.118724345629273E-006
 0.148109767735498E-006
 0.145137775385123E-006
 0.648714745790060E-006
 0.420266227912531E-004
 0.878251356959672E-001
 0.412462133002250E+000
 0.553058858434117E-007
 0.118023095178615E-006
 0.574599794735267E+000
 0.489195108570895E+000
 0.708946053975006E-001
 0.600691809668061E-003
 0.854074226601362E-002
 0.428534913648015E-001
 0.577081617090998E-001
 0.209037277725574E-003
 0.240373442381770E-001
 0.146185110681419E+000
 0.186639270855214E-001
 0.128093646130902E-006
 0.255771496073260E-005
 0.145300564722370E-001
 0.249283708759308E-003
 0.158077929950234E-006
 0.156500025850422E-006
 0.337136323349569E-004
 0.299901481134281E-002
 0.385554628731718E+001
 0.130658837548186E+001
 0.412645310612256E-001
 0.664303760520888E-007
 0.137702254868662E-001
 0.374321817987123E-002
 0.308630966426235E-006
 0.320671045036283E-005
 0.266869057747543E+000
 0.229945360055616E-005
 0.668636742513763E-005
 0.518548928500126E-004
 0.187435621246487E-006
 0.507096669039726E-001
 0.512545122924543E-004
 0.133405582694263E+002
 0.564528545553674E+001
 0.143864189308240E-004
 0.739256437940442E-004
 0.403704492590866E-004
 0.338853673444241E-002
 0.420765058426222E-003
 0.290627524654838E-004
 0.709665082851648E+000
 0.329407036131744E-004
 0.239798389568138E+000
 0.266877115053790E+001
 0.660641492333851E+001
 0.118339915096350E-006
 0.109905819912094E-006
 0.283043211005701E-001
 0.699201746344091E-007
 0.386722906630992E+000
 0.100134019903846E+000
 0.361045073456632E-001
 0.109812281541729E+000
 0.246879713954133E-002
 0.237491082104082E-001
 0.625446595847814E-007
 0.758367677467355E-007
 0.987221897828627E-007
 0.713093640510402E-007
 0.819534076981216E-007
 0.727686534628512E-007
 0.583289422301083E-007
 0.579243790274202E-007
 0.626716068007427E-007
 0.902637344716746E-007
 0.607728081580685E-007
 0.676684701532137E-007
 0.423835423894437E-006
 0.250708130887419E-006
 0.164577634146752E-006
 0.216853477766098E-006
 0.188740668691128E-005
 0.354149462004552E-006
 0.658263913217993E-006
 0.147753966991179E-006
 0.104774989753743E-005
 0.161202262274461E-006
 0.398694701051262E-006
 0.708700600354461E-007
 0.118511942512126E-006
 0.185976181022965E-006
 0.158518698521117E-006
 0.255017404140157E-006
 0.170012846441498E-006
 0.146461751160033E-006
 0.123433399552572E-006
 0.382948471535862E-006
 0.860513243187503E-007
 0.697156838230715E-007
 0.118291593828468E-006
 0.535152635421675E-007
 0.555151677294757E-007
 0.201075950618285E-006
 0.961219422190628E-007
 0.695957849080315E-007
 0.697481194286571E-007
 0.809728884255461E-007
 0.733441530503286E-007
 0.155217719732879E-006
 0.826644214187312E-007
 0.720992770002263E-007
 0.101367824721601E-006
 0.110467740085497E-006
 0.607532960407564E-007
 0.893923017703774E-007
 0.703264178990965E-007
 0.865284630193282E-007
 0.630815736909822E-007
 0.676387115582020E-007
 0.562876448383898E-007
 0.559292090553658E-007
