# vtk DataFile Version 3.0
Unstructured Grid
ASCII
DATASET UNSTRUCTURED_GRID
FIELD FieldData 1
TIME 1 1 float
  0.000000E+00
POINTS          317 double
 0.270170577706485E+000 0.505152171556438E+000 0.000000000000000E+000
 0.280202685967168E+000 0.490252580078277E+000 0.000000000000000E+000
 0.279427307624119E+000 0.505799540150428E+000 0.000000000000000E+000
 0.203269006236807E+000 0.272013857527681E+000 0.000000000000000E+000
 0.172451024947227E+000 0.275574737769946E+000 0.000000000000000E+000
 0.156826024947227E+000 0.271409358280560E+000 0.000000000000000E+000
 0.465471903904235E+000 0.519301839096155E+000 0.000000000000000E+000
 0.230328192348535E+000 0.436964231202382E+000 0.000000000000000E+000
 0.252315374196052E+000 0.445867000244645E+000 0.000000000000000E+000
 0.242061988005235E+000 0.447877393733807E+000 0.000000000000000E+000
 0.254739233432553E+000 0.525260348919167E+000 0.000000000000000E+000
 0.162650819698973E+000 0.435877943717513E+000 0.000000000000000E+000
 0.154657403097108E+000 0.449405755690972E+000 0.000000000000000E+000
 0.618837034382612E+000 0.329915594473744E+000 0.000000000000000E+000
 0.618837034382612E+000 0.361165594473744E+000 0.000000000000000E+000
 0.600348137530446E+000 0.350912377894978E+000 0.000000000000000E+000
 0.612674068765223E+000 0.347331188947489E+000 0.000000000000000E+000
 0.266860171798097E+000 0.521424929747413E+000 0.000000000000000E+000
 0.300727933201023E+000 0.456120671476884E+000 0.000000000000000E+000
 0.273647000366533E+000 0.442451045054403E+000 0.000000000000000E+000
 0.221632628044661E+000 0.441784734079793E+000 0.000000000000000E+000
 0.327119411299393E+000 0.480797239733630E+000 0.000000000000000E+000
 0.345850950335846E+000 0.479574309933407E+000 0.000000000000000E+000
 0.339554227993568E+000 0.510824309933407E+000 0.000000000000000E+000
 0.337508196542936E+000 0.490398619866815E+000 0.000000000000000E+000
 0.329920279100991E+000 0.522397342847193E+000 0.000000000000000E+000
 0.307315154765535E+000 0.525866441588548E+000 0.000000000000000E+000
 0.317485462406815E+000 0.492370272647415E+000 0.000000000000000E+000
 0.333938373007293E+000 0.362971530361812E+000 0.000000000000000E+000
 0.321537461313145E+000 0.389386121447248E+000 0.000000000000000E+000
 0.332159768896419E+000 0.382193060723624E+000 0.000000000000000E+000
 0.274663955318924E+000 0.453554651104751E+000 0.000000000000000E+000
 0.301744888153414E+000 0.467224277527232E+000 0.000000000000000E+000
 0.181018477256966E+000 0.415313778694760E+000 0.000000000000000E+000
 0.204993557452464E+000 0.417164247158211E+000 0.000000000000000E+000
 0.158910076751280E+000 0.497453090219242E+000 0.000000000000000E+000
 0.149492180512076E+000 0.506539045109621E+000 0.000000000000000E+000
 0.631944444444444E+000 0.328125000000000E+000 0.000000000000000E+000
 0.652777777777778E+000 0.343750000000000E+000 0.000000000000000E+000
 0.631944444444444E+000 0.359375000000000E+000 0.000000000000000E+000
 0.638888888888889E+000 0.343750000000000E+000 0.000000000000000E+000
 0.225696648658973E+000 0.495151579553990E+000 0.000000000000000E+000
 0.218549122134132E+000 0.478490723122837E+000 0.000000000000000E+000
 0.235862838320821E+000 0.478963164000354E+000 0.000000000000000E+000
 0.226702869704642E+000 0.484201822225727E+000 0.000000000000000E+000
 0.257290962139197E+000 0.434926913232822E+000 0.000000000000000E+000
 0.289505482345002E+000 0.484701089517944E+000 0.000000000000000E+000
 0.307381763217818E+000 0.482946209315103E+000 0.000000000000000E+000
 0.298032900379786E+000 0.494696559029761E+000 0.000000000000000E+000
 0.253663856641178E+000 0.479018074344750E+000 0.000000000000000E+000
 0.271641485327787E+000 0.479508631460322E+000 0.000000000000000E+000
 0.262304906345356E+000 0.484311642914518E+000 0.000000000000000E+000
 0.171171893065659E+000 0.502661423552575E+000 0.000000000000000E+000
 0.153885315326990E+000 0.481828090219242E+000 0.000000000000000E+000
 0.184732949023144E+000 0.488724917036275E+000 0.000000000000000E+000
 0.205766649809712E+000 0.480931161381817E+000 0.000000000000000E+000
 0.201137925055803E+000 0.489082698743687E+000 0.000000000000000E+000
 0.378344861420572E+000 0.296875000000000E+000 0.000000000000000E+000
 0.262712652132449E+000 0.453976092133840E+000 0.000000000000000E+000
 0.244282583858359E+000 0.484250693824104E+000 0.000000000000000E+000
 0.248668366558123E+000 0.514220210207547E+000 0.000000000000000E+000
 0.236422885327394E+000 0.523935617452646E+000 0.000000000000000E+000
 0.182762202910253E+000 0.498469979699617E+000 0.000000000000000E+000
 0.176883382126243E+000 0.441757881054171E+000 0.000000000000000E+000
 0.140112078432928E+000 0.370030179420231E+000 0.000000000000000E+000
 0.155478552908409E+000 0.354405179420231E+000 0.000000000000000E+000
 0.155224156865855E+000 0.365060358840462E+000 0.000000000000000E+000
 0.185261119409802E+000 0.431371869944520E+000 0.000000000000000E+000
 0.209236199605301E+000 0.433222338407972E+000 0.000000000000000E+000
 0.199878002518765E+000 0.440393608144986E+000 0.000000000000000E+000
 0.155429490867226E+000 0.416983421162703E+000 0.000000000000000E+000
 0.288792618906974E+000 0.355941510910474E+000 0.000000000000000E+000
 0.300879667632397E+000 0.387857864547419E+000 0.000000000000000E+000
 0.189415398139795E+000 0.333781067729362E+000 0.000000000000000E+000
 0.311019774719446E+000 0.377135533930079E+000 0.000000000000000E+000
 0.298932725994023E+000 0.345219180293134E+000 0.000000000000000E+000
 0.264435048015655E+000 0.333486861368351E+000 0.000000000000000E+000
 0.230465326364401E+000 0.344605194302135E+000 0.000000000000000E+000
 0.242129039752285E+000 0.334227247839718E+000 0.000000000000000E+000
 0.321280805632415E+000 0.447935436762109E+000 0.000000000000000E+000
 0.318373069469425E+000 0.410627098047323E+000 0.000000000000000E+000
 0.234344246092729E+000 0.356456415547585E+000 0.000000000000000E+000
 0.200446277989035E+000 0.374461150363403E+000 0.000000000000000E+000
 0.217377323653992E+000 0.363737182484986E+000 0.000000000000000E+000
 0.215953034331467E+000 0.372491224205420E+000 0.000000000000000E+000
 0.370807862640203E+000 0.390625000000000E+000 0.000000000000000E+000
 0.358231450560812E+000 0.406250000000000E+000 0.000000000000000E+000
 0.366615725280406E+000 0.406250000000000E+000 0.000000000000000E+000
 0.356936998726040E+000 0.453125000000000E+000 0.000000000000000E+000
 0.349265790317593E+000 0.515625000000000E+000 0.000000000000000E+000
 0.355562512659871E+000 0.484375000000000E+000 0.000000000000000E+000
 0.365965660595493E+000 0.500000000000000E+000 0.000000000000000E+000
 0.356931321190986E+000 0.500000000000000E+000 0.000000000000000E+000
 0.328493897365562E+000 0.459963906400297E+000 0.000000000000000E+000
 0.378484929065611E+000 0.515625000000000E+000 0.000000000000000E+000
 0.667793187333484E+000 0.462903390522876E+000 0.000000000000000E+000
 0.256348210726669E+000 0.380844713320385E+000 0.000000000000000E+000
 0.277659754680542E+000 0.354188223103716E+000 0.000000000000000E+000
 0.268578453082059E+000 0.375629971310448E+000 0.000000000000000E+000
 0.339696862437952E+000 0.330885813051934E+000 0.000000000000000E+000
 0.359338373878869E+000 0.315260813051934E+000 0.000000000000000E+000
 0.305347400200655E+000 0.265353062601341E+000 0.000000000000000E+000
 0.309254033278177E+000 0.289260501757144E+000 0.000000000000000E+000
 0.298194800401310E+000 0.280706125202683E+000 0.000000000000000E+000
 0.178903954135536E+000 0.331908877601937E+000 0.000000000000000E+000
 0.165176521834061E+000 0.344874853965657E+000 0.000000000000000E+000
 0.174620094717160E+000 0.345999707931315E+000 0.000000000000000E+000
 0.169144215272749E+000 0.310981037751846E+000 0.000000000000000E+000
 0.155100616991585E+000 0.304144028231133E+000 0.000000000000000E+000
 0.423210791520808E+000 0.520833333333333E+000 0.000000000000000E+000
 0.404410706405813E+000 0.520833333333333E+000 0.000000000000000E+000
 0.412911838417960E+000 0.510416666666667E+000 0.000000000000000E+000
 0.202550308495792E+000 0.283316865406441E+000 0.000000000000000E+000
 0.184769215272749E+000 0.304729750574565E+000 0.000000000000000E+000
 0.171732327206212E+000 0.286877745648705E+000 0.000000000000000E+000
 0.186350616991585E+000 0.291641453876570E+000 0.000000000000000E+000
 0.195399552865581E+000 0.323534576285401E+000 0.000000000000000E+000
 0.214227871089281E+000 0.322101616577933E+000 0.000000000000000E+000
 0.207611292177248E+000 0.329251105298244E+000 0.000000000000000E+000
 0.155186601559627E+000 0.334219674545427E+000 0.000000000000000E+000
 0.259111674412646E+000 0.304152098656730E+000 0.000000000000000E+000
 0.271596635027717E+000 0.323373587457000E+000 0.000000000000000E+000
 0.238648331888861E+000 0.314476413937319E+000 0.000000000000000E+000
 0.256452213776408E+000 0.314000700017016E+000 0.000000000000000E+000
 0.348811318078778E+000 0.343750000000000E+000 0.000000000000000E+000
 0.368452829519695E+000 0.328125000000000E+000 0.000000000000000E+000
 0.361905659039389E+000 0.343750000000000E+000 0.000000000000000E+000
 0.433180723566308E+000 0.510416666666667E+000 0.000000000000000E+000
 0.432627375337283E+000 0.332788121971716E+000 0.000000000000000E+000
 0.394659082301870E+000 0.515625000000000E+000 0.000000000000000E+000
 0.384204295105037E+000 0.500000000000000E+000 0.000000000000000E+000
 0.393408590210075E+000 0.500000000000000E+000 0.000000000000000E+000
 0.443195410127916E+000 0.517093547370004E+000 0.000000000000000E+000
 0.477563475817216E+000 0.514841892235410E+000 0.000000000000000E+000
 0.495890906064880E+000 0.512681409543164E+000 0.000000000000000E+000
 0.485722636028223E+000 0.520872500250798E+000 0.000000000000000E+000
 0.610241392439113E+000 0.503633238361437E+000 0.000000000000000E+000
 0.595482784878227E+000 0.507266476722874E+000 0.000000000000000E+000
 0.776910651056342E+000 0.529426755055147E+000 0.000000000000000E+000
 0.793146427039974E+000 0.515011668388816E+000 0.000000000000000E+000
[...]
POINT_DATA          317
SCALARS opt_pot double 1
LOOKUP_TABLE default
 0.296318820205656E+000
 0.239380648235816E+000
 0.263642456012114E+000
 0.731647906980039E+000
 0.800066036546779E+000
 0.882192946158310E+000
-0.408386509488169E-001
 0.453390832644983E+000
 0.357770450919611E+000
 0.352614648683621E+000
 0.409040179355337E+000
 0.624918645045236E+000
 0.666085223097436E+000
-0.141597892795752E+000
-0.151599690226596E-001
 0.298394260256447E-001
 0.120836967065385E-001
 0.344472549702170E+000
 0.271256489166022E+000
 0.331174443203340E+000
 0.404666153780948E+000
 0.159857690228785E+000
 0.214678506135571E+000
 0.177632795665310E+000
 0.134996455004600E+000
 0.238332357862191E+000
 0.354482262925923E+000
 0.169057239441104E+000
 0.506684828757934E+000
 0.636828183484008E+000
 0.568491629587854E+000
 0.274545944479456E+000
 0.214627990439289E+000
 0.635134047083907E+000
 0.616693325865064E+000
 0.614952397283738E+000
 0.655238359002848E+000
-0.209462481042658E+000
-0.438564312216710E-001
-0.830245572738056E-001
-0.245164777481445E-001
 0.426574140066669E+000
 0.409143267255879E+000
 0.367637742244599E+000
 0.358584732527934E+000
 0.403911018356494E+000
 0.269813687774684E+000
 0.239228205315898E+000
 0.203085314016495E+000
 0.329681610027503E+000
 0.309151438657962E+000
 0.278215618168941E+000
 0.543385133853757E+000
 0.654364304563428E+000
 0.493828886349211E+000
 0.466204280314216E+000
 0.427684555412551E+000
 0.478044665743436E+000
 0.301855291784706E+000
 0.317143062102406E+000
 0.390386922155492E+000
 0.469774988922355E+000
 0.493703298199356E+000
 0.546709228659299E+000
 0.928188760263956E+000
 0.816887662014564E+000
 0.870727725527087E+000
 0.534833472846308E+000
 0.465397562865573E+000
 0.465593335637262E+000
 0.703043240746147E+000
 0.545414725563027E+000
 0.569162444656199E+000
 0.675625317868686E+000
 0.643517516038057E+000
 0.493446750726013E+000
 0.553609475981388E+000
 0.711690037049619E+000
 0.632399008737467E+000
 0.275698532612856E+000
 0.423334373909242E+000
 0.674725647352708E+000
 0.850936657711202E+000
 0.749150565346537E+000
 0.798646364765002E+000
 0.502051090596894E+000
 0.603918618455202E+000
 0.584213110521538E+000
 0.318523168228379E+000
 0.209706726041815E+000
 0.159658691255987E+000
 0.935568209789564E-001
 0.105540216394872E+000
 0.265895072173463E+000
 0.684075246237425E-001
-0.450069570808719E+000
 0.726686149453254E+000
 0.610697004755216E+000
 0.659161197881591E+000
 0.367315768650330E+000
 0.371286389745542E+000
 0.660096980651903E+000
 0.598197938867780E+000
 0.650666723638450E+000
 0.738419402564964E+000
 0.780916992146974E+000
 0.732616377447082E+000
 0.790830572492078E+000
 0.856068482962860E+000
 0.100763731656411E-001
 0.326347030421408E-001
 0.296706795622891E-001
 0.674786102619661E+000
 0.705359637083965E+000
 0.799047817255828E+000
 0.720962535810946E+000
 0.663847512103516E+000
 0.597353529460912E+000
 0.623216465610331E+000
 0.859444350985557E+000
 0.553288280919801E+000
 0.505813701569869E+000
 0.538930792530643E+000
 0.501400314210896E+000
 0.457924271494036E+000
 0.327221823521507E+000
 0.391421347033729E+000
 0.353938443978077E-002
 0.272912094548641E+000
 0.470833811444812E-001
 0.700429899264717E-001
 0.581765182372778E-001
-0.119783145111722E-001
-0.565341267886964E-001
-0.808402157507333E-001
-0.670249530136330E-001
-0.231289160453000E+000
-0.211693813116597E+000
-0.667574931196240E+000
-0.672791142408395E+000
-0.694329165625326E+000
 0.639756944525224E+000
 0.710824336605025E+000
 0.735956582325407E+000
 0.632709273492951E+000
 0.640055664433386E+000
 0.624630644645240E+000
 0.628800433467162E+000
 0.569145849102154E+000
 0.496350035641547E+000
 0.420551154786299E+000
 0.573144853622147E+000
 0.461255038397699E+000
 0.409496819568483E+000
 0.445579961098997E+000
 0.405544144117594E+000
 0.446575187206762E+000
 0.571167134423183E+000
 0.460639470491503E+000
 0.512514749446711E+000
 0.188327149649011E+000
-0.941592814044297E-001
 0.257074461545053E+000
 0.278840781546295E+000
 0.307341543145154E+000
-0.274098359184268E+000
-0.129996364200170E+000
-0.148070916171208E+000
-0.169470915976223E+000
-0.402464957475818E+000
-0.461168729250985E+000
 0.132253941365031E+000
 0.157459540950556E+000
 0.128466699872847E+000
-0.291217294375033E+000
-0.330784169771947E+000
 0.389334003046282E+000
 0.314896779205205E+000
 0.327175397070436E+000
 0.341804118114280E+000
 0.299555111746199E+000
 0.356029953217377E+000
 0.386920139429365E+000
 0.193955892123975E+000
 0.230546945704984E+000
 0.230589111560368E+000
 0.657317964659841E-001
 0.105199420953177E+000
 0.336705656146453E-001
-0.310076610867140E+000
 0.163026377742102E+000
-0.592863826396356E+000
-0.533571116728939E-001
 0.341943359409513E+000
-0.122419734919914E+000
-0.660052536185183E-001
-0.137654297010396E+000
-0.447569940726157E+000
 0.990717623658055E-001
-0.493012351072845E+000
-0.562730222411036E+000
-0.131780985151342E+000
-0.149839133366252E+000
-0.201146493311061E+000
-0.321587738360099E+000
-0.782733381875225E-001
-0.116705687672166E+000
-0.113018561093002E+000
-0.241719468688378E+000
-0.224249505562620E+000
-0.271226364674535E+000
-0.189862603258650E+000
-0.261918299547450E+000
-0.371540738107357E+000
-0.492466577759224E+000
-0.643779583278968E+000
-0.546258719550908E+000
-0.524450517596825E+000
-0.326893983253305E+000
-0.278466204670571E+000
-0.356818825431183E+000
-0.409109509394865E+000
-0.468708861666875E+000
-0.382508750468078E+000
-0.235688469579870E+000
-0.154244376063145E+000
-0.209484986000324E+000
-0.206910652664871E+000
-0.289395159013164E+000
-0.338224498863347E+000
-0.381416750424460E+000
-0.269357779823877E+000
-0.289225959540180E+000
-0.434686904903513E+000
-0.510356522567491E+000
-0.194520148028275E+000
-0.277494943591843E+000
-0.150235292338876E+000
-0.245598753927090E+000
-0.193829678400436E+000
-0.480097015957729E+000
-0.338064994612139E+000
-0.450229399177232E+000
-0.263357683191708E+000
-0.357251194000564E+000
-0.437015903045831E+000
-0.339102179943883E+000
-0.367652365185900E+000
-0.882533160432599E+000
-0.223441910682548E+000
-0.326055038493176E+000
-0.286708407569606E+000
-0.243900283175414E+000
-0.295294076380057E+000
-0.344205214696167E+000
-0.683827649608641E+000
-0.556308770544907E+000
-0.619598138993786E+000
-0.538867907726501E+000
-0.815377543221642E+000
-0.499003050711296E+000
-0.418179165459463E+000
-0.328479218439173E+000
-0.323605167630498E+000
-0.455676247848433E+000
-0.394934284602809E+000
-0.374384457554530E+000
-0.460034633334394E+000
-0.504585154980781E+000
-0.197050515363259E+000
-0.550055788059966E+000
-0.491130499169085E+000
-0.448242046700590E+000
-0.425853564696387E+000
-0.524617157719803E+000
-0.348376184681499E+000
-0.423327020748440E+000
-0.376091263177349E+000
-0.496003379664382E+000
-0.568624230873226E+000
-0.517067296844673E+000
-0.583433246563353E+000
-0.418819381473350E+000
-0.478802125539379E+000
-0.659746784386144E+000
-0.630545406736694E+000
-0.702923154020507E+000
-0.612434754261572E+000
-0.758987294499807E+000
-0.656563414734044E+000
-0.561703639339629E+000
-0.681336291934003E+000
-0.733670190727318E+000
-0.584198413793262E+000
-0.677804918803624E+000
-0.566425791934778E+000
-0.634961327828275E+000
-0.347341043187450E+000
-0.484174039754887E+000
-0.407942384031776E+000
-0.404181309801607E+000
-0.768817428040546E+000
-0.782754120745363E+000
-0.719475946422416E+000
-0.450081010824159E+000
-0.352110101861688E+000
-0.416259740666058E+000
-0.289664459714258E+000
-0.351273648160726E+000
-0.534204622499808E+000
-0.595049201361591E+000
-0.552566683501825E+000
-0.727557611483186E+000
-0.823538089619209E+000
-0.751219121590496E+000
-0.795127797854393E+000
-0.744526633642514E+000
