# vtk DataFile Version 3.0
Unstructured Grid
ASCII
DATASET UNSTRUCTURED_GRID
FIELD FieldData 1
TIME 1 1 float
  0.175295E+03
POINTS         2588 double
 0.000000000000000E+000 0.000000000000000E+000 0.000000000000000E+000
 0.100000000000000E+001 0.000000000000000E+000 0.000000000000000E+000
 0.100000000000000E+001 0.100000000000000E+001 0.000000000000000E+000
 0.000000000000000E+000 0.100000000000000E+001 0.000000000000000E+000
 0.125000000000000E+000 0.250000000000000E+000 0.000000000000000E+000
 0.375000000000000E+000 0.250000000000000E+000 0.000000000000000E+000
 0.375000000000000E+000 0.750000000000000E+000 0.000000000000000E+000
 0.125000000000000E+000 0.750000000000000E+000 0.000000000000000E+000
 0.625000000000000E+000 0.250000000000000E+000 0.000000000000000E+000
 0.875000000000000E+000 0.250000000000000E+000 0.000000000000000E+000
 0.875000000000000E+000 0.750000000000000E+000 0.000000000000000E+000
 0.625000000000000E+000 0.750000000000000E+000 0.000000000000000E+000
 0.100000000000000E+001 0.500000000000000E+000 0.000000000000000E+000
 0.000000000000000E+000 0.500000000000000E+000 0.000000000000000E+000
 0.500000000000000E+000 0.000000000000000E+000 0.000000000000000E+000
 0.125000000000000E+000 0.500000000000000E+000 0.000000000000000E+000
 0.000000000000000E+000 0.750000000000000E+000 0.000000000000000E+000
 0.000000000000000E+000 0.250000000000000E+000 0.000000000000000E+000
 0.000000000000000E+000 0.875000000000000E+000 0.000000000000000E+000
 0.000000000000000E+000 0.125000000000000E+000 0.000000000000000E+000
 0.000000000000000E+000 0.812500000000000E+000 0.000000000000000E+000
 0.625000000000000E-001 0.812500000000000E+000 0.000000000000000E+000
 0.125000000000000E+000 0.375000000000000E+000 0.000000000000000E+000
 0.000000000000000E+000 0.375000000000000E+000 0.000000000000000E+000
 0.125000000000000E+000 0.625000000000000E+000 0.000000000000000E+000
 0.312500000000000E-001 0.781250000000000E+000 0.000000000000000E+000
 0.000000000000000E+000 0.625000000000000E+000 0.000000000000000E+000
 0.781250000000000E-001 0.765625000000000E+000 0.000000000000000E+000
 0.364583333333333E-001 0.744791666666667E+000 0.000000000000000E+000
 0.000000000000000E+000 0.687500000000000E+000 0.000000000000000E+000
 0.312500000000000E-001 0.843750000000000E+000 0.000000000000000E+000
 0.500000000000000E+000 0.100000000000000E+001 0.000000000000000E+000
 0.117915518486872E+000 0.805415518486872E+000 0.000000000000000E+000
 0.531250000000000E-001 0.896875000000000E+000 0.000000000000000E+000
 0.128125000000000E+000 0.862500000000000E+000 0.000000000000000E+000
 0.852352799227800E-001 0.850726351351351E+000 0.000000000000000E+000
 0.250000000000000E+000 0.750000000000000E+000 0.000000000000000E+000
 0.000000000000000E+000 0.937500000000000E+000 0.000000000000000E+000
 0.250000000000000E+000 0.100000000000000E+001 0.000000000000000E+000
 0.125000000000000E+000 0.100000000000000E+001 0.000000000000000E+000
 0.559955578663221E-001 0.864626829113867E+000 0.000000000000000E+000
 0.201656717908302E+000 0.819893736067327E+000 0.000000000000000E+000
 0.181985294117647E-001 0.906250000000000E+000 0.000000000000000E+000
 0.157158578892515E+000 0.827852167423944E+000 0.000000000000000E+000
 0.173219498992632E+000 0.789273026175030E+000 0.000000000000000E+000
 0.190370748034901E+000 0.885171153579592E+000 0.000000000000000E+000
 0.163362285670037E+000 0.862539079232243E+000 0.000000000000000E+000
 0.145689809422689E+000 0.911060496538305E+000 0.000000000000000E+000
 0.260169562085505E+000 0.921822264266383E+000 0.000000000000000E+000
 0.999952720236157E-001 0.900131729869707E+000 0.000000000000000E+000
 0.181336648989602E+000 0.921080529637299E+000 0.000000000000000E+000
 0.187500000000000E+000 0.100000000000000E+001 0.000000000000000E+000
 0.625000000000000E-001 0.100000000000000E+001 0.000000000000000E+000
 0.391044682108720E-001 0.939348618511729E+000 0.000000000000000E+000
 0.987901813178879E-001 0.953497897705852E+000 0.000000000000000E+000
 0.127430470763290E+000 0.938015442955272E+000 0.000000000000000E+000
 0.735147503821561E-001 0.927156548383149E+000 0.000000000000000E+000
 0.187500000000000E+000 0.750000000000000E+000 0.000000000000000E+000
 0.937500000000000E-001 0.986976003387646E+000 0.000000000000000E+000
 0.647068558612996E-001 0.964310770745732E+000 0.000000000000000E+000
 0.287348941263244E-001 0.975594752089430E+000 0.000000000000000E+000
 0.140548246895551E+000 0.780148342865875E+000 0.000000000000000E+000
 0.625000000000000E-001 0.656250000000000E+000 0.000000000000000E+000
 0.885416666666667E-001 0.718750000000000E+000 0.000000000000000E+000
 0.125000000000000E+000 0.687500000000000E+000 0.000000000000000E+000
 0.418778153153153E-001 0.701096693284193E+000 0.000000000000000E+000
 0.130000591648319E-001 0.718750000000000E+000 0.000000000000000E+000
 0.886787280701754E-001 0.682017543859649E+000 0.000000000000000E+000
 0.324539302647226E+000 0.874753539998500E+000 0.000000000000000E+000
 0.220842706957930E+000 0.911928394103011E+000 0.000000000000000E+000
 0.255656705174793E+000 0.856653769033302E+000 0.000000000000000E+000
 0.230240640268531E+000 0.957679342037283E+000 0.000000000000000E+000
 0.247273788001812E+000 0.889974781313083E+000 0.000000000000000E+000
 0.287822583654814E+000 0.892090285129540E+000 0.000000000000000E+000
 0.375000000000000E+000 0.100000000000000E+001 0.000000000000000E+000
 0.312500000000000E+000 0.100000000000000E+001 0.000000000000000E+000
 0.296339471848887E+000 0.927737349884604E+000 0.000000000000000E+000
 0.272754945277513E+000 0.963602684427479E+000 0.000000000000000E+000
 0.218750000000000E+000 0.100000000000000E+001 0.000000000000000E+000
 0.156250000000000E+000 0.970185411869689E+000 0.000000000000000E+000
 0.193067439035452E+000 0.962879965079150E+000 0.000000000000000E+000
 0.366022419631980E+000 0.930828672570042E+000 0.000000000000000E+000
 0.331917636626289E+000 0.912676918057824E+000 0.000000000000000E+000
 0.218750000000000E+000 0.780050991479902E+000 0.000000000000000E+000
 0.270314960374965E+000 0.802399429390985E+000 0.000000000000000E+000
 0.239019213447470E+000 0.823051378525603E+000 0.000000000000000E+000
 0.312500000000000E+000 0.750000000000000E+000 0.000000000000000E+000
 0.297176692881550E+000 0.838764170920897E+000 0.000000000000000E+000
 0.316491084060399E+000 0.796393690767677E+000 0.000000000000000E+000
 0.343750000000000E+000 0.770680188507291E+000 0.000000000000000E+000
 0.409908719410776E+000 0.836702006091634E+000 0.000000000000000E+000
 0.362591033297072E+000 0.817958948082628E+000 0.000000000000000E+000
 0.401086171766563E+000 0.789875587437421E+000 0.000000000000000E+000
 0.371341896832358E+000 0.864966336467817E+000 0.000000000000000E+000
 0.333452116450771E+000 0.839580614538559E+000 0.000000000000000E+000
 0.625000000000000E+000 0.500000000000000E+000 0.000000000000000E+000
 0.497245004128187E+000 0.796002674320860E+000 0.000000000000000E+000
 0.375000000000000E+000 0.625000000000000E+000 0.000000000000000E+000
 0.448383797292392E+000 0.805208595628784E+000 0.000000000000000E+000
 0.410140101146819E+000 0.755482168792868E+000 0.000000000000000E+000
 0.466643384891561E+000 0.767852445997818E+000 0.000000000000000E+000
 0.476967665188550E+000 0.732032311892081E+000 0.000000000000000E+000
 0.540753556856103E+000 0.747012385328872E+000 0.000000000000000E+000
 0.490851671729155E+000 0.896339978179292E+000 0.000000000000000E+000
 0.457989751325779E+000 0.856193010026991E+000 0.000000000000000E+000
 0.477617377726983E+000 0.826097842173926E+000 0.000000000000000E+000
 0.546397010943533E+000 0.849506899903764E+000 0.000000000000000E+000
 0.514994092174850E+000 0.829026377565149E+000 0.000000000000000E+000
 0.557956128164421E+000 0.797467818442289E+000 0.000000000000000E+000
 0.513053884697208E+000 0.866316721845202E+000 0.000000000000000E+000
 0.531719458287368E+000 0.903340824708691E+000 0.000000000000000E+000
 0.750000000000000E+000 0.100000000000000E+001 0.000000000000000E+000
 0.503122841217304E+000 0.947490703764094E+000 0.000000000000000E+000
 0.428509525448068E+000 0.913846660476909E+000 0.000000000000000E+000
 0.625000000000000E+000 0.100000000000000E+001 0.000000000000000E+000
 0.410139362032626E+000 0.877461197108989E+000 0.000000000000000E+000
 0.393550593852374E+000 0.908666538512922E+000 0.000000000000000E+000
 0.455853425536278E+000 0.891464570133054E+000 0.000000000000000E+000
 0.465565809489837E+000 0.931223943045515E+000 0.000000000000000E+000
 0.430803944763131E+000 0.957152995135723E+000 0.000000000000000E+000
 0.361862549463301E+000 0.897277191535820E+000 0.000000000000000E+000
 0.281250000000000E+000 0.768022264880110E+000 0.000000000000000E+000
 0.528016132294562E+000 0.779515446907155E+000 0.000000000000000E+000
 0.582435077211395E+000 0.760961532636893E+000 0.000000000000000E+000
 0.594258447236559E+000 0.718750000000000E+000 0.000000000000000E+000
 0.513210480866922E+000 0.721000388231171E+000 0.000000000000000E+000
 0.625000000000000E+000 0.625000000000000E+000 0.000000000000000E+000
 0.293099715520438E+000 0.681007179427844E+000 0.000000000000000E+000
 0.625000000000000E+000 0.687500000000000E+000 0.000000000000000E+000
 0.375000000000000E+000 0.500000000000000E+000 0.000000000000000E+000
 0.588365877190365E+000 0.682207614843486E+000 0.000000000000000E+000
 0.544806337802789E+000 0.700097114505632E+000 0.000000000000000E+000
 0.473117607324743E+000 0.654334216996401E+000 0.000000000000000E+000
 0.507976816774602E+000 0.678758937084175E+000 0.000000000000000E+000
 0.471770128441152E+000 0.693345422145358E+000 0.000000000000000E+000
 0.540484989053884E+000 0.595274872726202E+000 0.000000000000000E+000
 0.434924684287812E+000 0.717988149163748E+000 0.000000000000000E+000
 0.438762107036035E+000 0.672676424045669E+000 0.000000000000000E+000
 0.514022824851611E+000 0.633041943182225E+000 0.000000000000000E+000
 0.375000000000000E+000 0.687500000000000E+000 0.000000000000000E+000
[...]
CELL_DATA         5036
SCALARS tdens double 1
LOOKUP_TABLE default
 0.235240247081945E-010
 0.156071437911559E-009
 0.369468496202459E-010
 0.297184638942766E-010
 0.523081191175104E-005
 0.133708239319818E-005
 0.166443648538517E-005
 0.153554200812074E-005
 0.581054889352754E-001
 0.898756445248304E-001
 0.978868559950273E-001
 0.946121716048387E-001
 0.144324837748803E-010
 0.464495554324415E-011
 0.111803088463699E-010
 0.113629388197830E-010
 0.316744655834060E-010
 0.285324180705597E-010
 0.177215754970267E-010
 0.234547808306132E-010
 0.100000000000000E-011
 0.100000000000000E-011
 0.100000000000000E-011
 0.100000000000000E-011
 0.112673408223639E-001
 0.870257724963257E-002
 0.539841109817185E-001
 0.100628220286512E-001
 0.113912548944773E+000
 0.141945163522370E+000
 0.105074312687558E+000
 0.112897887228676E+000
 0.150183548321971E+000
 0.183379747897705E+000
 0.187950422469235E+000
 0.186096214120945E+000
 0.432719354312060E-008
 0.338603586881351E-008
 0.225644605661678E-008
 0.361410188739125E-008
 0.167648047531567E-006
 0.425185760038167E-006
 0.402748983283364E-006
 0.418907335616418E-006
 0.186698915877573E-004
 0.477204031437489E-004
 0.340236543507453E-004
 0.327031539551490E-004
 0.254972645560446E-006
 0.698335304688706E-007
 0.901734236662943E-008
 0.590969620796676E-007
 0.130418074442336E+000
 0.765108590550633E-001
 0.997539883987372E-001
 0.865154365228077E-001
 0.623126448786413E-002
 0.138627793130896E-002
 0.233321960894210E-002
 0.209600046903061E-002
 0.132132275587668E+000
 0.141615984828529E+000
 0.197701648671242E+000
 0.139935139414856E+000
 0.230546432656216E-007
 0.688241815592507E-007
 0.195450236948439E-007
 0.228393031571741E-007
 0.198603548339733E-005
 0.795522420720386E-002
 0.538572137729319E-003
 0.635519368221028E-003
 0.113150932415216E-010
 0.871720838014031E-011
 0.960766971478979E-011
 0.968218169201804E-011
 0.139006891534956E+000
 0.141867413617260E+000
 0.118838885454044E+000
 0.140943150609035E+000
 0.999985815079599E-004
 0.304277937988318E-003
 0.494453609442009E-004
 0.953302868519144E-004
 0.100000000000000E-011
 0.100000000000000E-011
 0.100000000000000E-011
 0.100000000000000E-011
 0.146500263469573E+000
 0.144506379176643E+000
 0.135425246836117E+000
 0.144708492542953E+000
 0.100000000000000E-011
 0.100000000000000E-011
 0.100000000000000E-011
 0.100000000000000E-011
 0.141944449643133E+000
 0.152908566346274E+000
 0.153014952036671E+000
 0.153429417441547E+000
 0.106117915379886E+000
 0.116368203229323E+000
 0.778162691231288E-001
 0.108876251222715E+000
 0.212372740817136E-011
 0.239576950447842E-010
 0.191061588115883E-010
 0.149097826132113E-010
 0.866081222191036E-003
 0.959876289413008E-004
 0.698611098119057E-003
 0.745827305109314E-003
 0.244781789316435E-001
 0.542719958061046E-002
 0.262957090412065E-001
 0.244821350622293E-001
 0.527082407563223E-006
 0.151627963554298E-006
 0.209662865187687E-006
 0.198610283059599E-006
 0.643184439054776E-008
 0.335022007823707E-008
 0.126038557419624E-007
 0.617345164944202E-008
 0.957961419789529E-007
 0.321361015884314E-006
 0.337283952668601E-005
 0.223627588754648E-006
 0.431541621415398E-010
 0.132733495184223E-010
 0.100000000000000E-011
 0.115421789696650E-011
 0.232338751117394E-005
 0.505424858814132E-002
 0.723915394094157E-002
 0.746840357532226E-002
 0.951103372116950E-011
 0.124483138824644E-010
 0.657584537891497E-011
 0.972016643374099E-011
 0.100000000000000E-011
 0.100000000000000E-011
 0.100000000000000E-011
 0.100000000000000E-011
 0.803282968620941E-010
 0.247233389597572E-010
 0.217271972399159E-010
 0.292272138243596E-010
 0.100000000000000E-011
 0.100000000000000E-011
 0.100000000000000E-011
 0.100000000000000E-011
 0.100000000000000E-011
 0.139193737924544E-011
 0.100000000000000E-011
 0.100000000000000E-011
 0.100000000000000E-011
 0.100000000000000E-011
 0.100000000000000E-011
 0.100000000000000E-011
 0.100000000000000E-011
 0.100000000000000E-011
 0.100000000000000E-011
 0.100000000000000E-011
 0.326302712640760E-001
 0.496530804164812E-001
 0.582389891701417E-001
 0.522436313919625E-001
 0.100000000000000E-011
 0.100000000000000E-011
 0.100000000000000E-011
 0.100000000000000E-011
 0.100000000000000E-011
 0.100000000000000E-011
 0.100000000000000E-011
 0.100000000000000E-011
 0.100000000000000E-011
 0.100000000000000E-011
 0.100000000000000E-011
 0.100000000000000E-011
 0.100000000000000E-011
 0.157120468717913E-011
 0.208748926987907E-011
 0.151841308974746E-011
 0.373298391852657E-004
 0.800569274315640E-004
 0.846663138860891E-004
 0.877543477370748E-004
 0.415845086653704E-011
 0.196110589565003E-010
 0.343978343519794E-011
 0.498198047934723E-011
 0.434534473909918E-010
 0.256729748088302E-002
 0.103339371300314E-001
 0.529433732035198E-002
 0.100000000000000E-011
 0.114274679795356E-011
 0.111081088931652E-011
 0.100000000000000E-011
 0.130858020265113E-011
 0.100000000000000E-011
 0.427936813576391E-011
 0.112495306305745E-011
 0.344671332239119E-008
 0.357610608200309E-009
 0.236960767863656E-009
 0.339233735413704E-009
 0.555168162829349E-008
 0.120315860596513E-009
 0.435630313249970E-008
 0.426304147865621E-008
 0.100000000000000E-011
 0.100000000000000E-011
 0.103018314497057E-011
 0.100000000000000E-011
 0.107390735558827E-011
 0.146747645473314E-011
 0.100000000000000E-011
 0.111535940801176E-011
 0.482301072434437E-011
 0.175350149349474E-010
 0.265431080526436E-010
 0.177570289407027E-010
 0.100000000000000E-011
 0.100000000000000E-011
 0.100000000000000E-011
 0.100000000000000E-011
 0.514828987462474E-001
 0.338356006979092E-001
 0.638284632815480E-001
 0.398771619427729E-001
 0.180813061104196E-003
 0.426785353763180E-003
 0.207614790168444E-002
 0.437877810760689E-003
 0.191324911039356E-011
 0.102517837478885E-010
 0.307016116052595E-011
 0.331497010456192E-011
 0.474608592048353E-004
 0.364510719731598E-004
 0.197365061689556E-003
 0.403850410610913E-004
 0.195020835314560E-009
 0.113103858614906E-009
 0.369146857879992E-008
 0.231209473190648E-009
 0.629654501630107E-002
 0.218814526186809E-001
 0.802860423922893E-003
 0.752503502306037E-002
 0.103963247279748E-010
 0.655812033318123E-011
 0.260995410256106E-010
 0.112623992997543E-010
 0.100000000000000E-011
 0.100000000000000E-011
 0.100000000000000E-011
 0.100000000000000E-011
 0.100000000000000E-011
 0.100000000000000E-011
 0.222474416676686E-011
 0.112436128805001E-011
 0.333868382758352E-001
 0.840449052600960E-002
 0.275095617092856E-002
 0.768970827849750E-002
 0.878580203042399E-001
 0.115587708453643E+000
 0.108459482160476E+000
 0.997533090319313E-001
 0.148017863900839E-001
 0.293151329802753E-001
 0.488571102608234E-001
 0.383182044656410E-001
 0.353932843493459E-001
 0.677926776579281E-001
 0.911258854287675E-001
 0.666298237500729E-001
 0.482742144888604E-004
 0.134237618633826E-002
 0.379433815076814E-003
 0.479398869978908E-003
 0.300993134217854E-001
 0.256877736661210E-002
 0.153470927850394E-001
 0.175702803471637E-001
 0.795520052711370E-007
 0.204221307757852E-005
 0.211606358285644E-005
 0.186200792334208E-005
 0.248304153515230E-006
 0.888802839383514E-007
 0.206493183776664E-005
 0.250315679395410E-006
 0.148227784886261E-010
 0.621572240109086E-010
 0.699647339540022E-010
 0.574017566602475E-010
 0.299724731682543E-006
 0.407461988356522E-005
 0.627481521975449E-005
 0.376539815777294E-005
 0.407711788516179E-010
 0.598680159243484E-011
 0.113061905142520E-010
 0.139349592781874E-010
 0.391888510313226E-008
 0.391031485651906E-008
 0.259710892642730E-009
 0.341489516770319E-008
 0.252922668241873E-007
 0.725024856637099E-009
 0.112039685445468E-007
 0.118541226089799E-007
 0.309187111656451E-006
 0.227577738686636E-005
 0.169490589334195E-005
 0.209735497869777E-005
 0.633430966881483E-004
 0.161818774566645E-003
 0.690650146408189E-004
 0.714963669237962E-004
 0.286140723427643E-011
 0.174709047239132E-011
 0.454452056224493E-011
 0.287307804846490E-011
 0.433503873197246E-007
 0.119354271470296E-005
 0.146393505324785E-006
 0.154124628582351E-006
 0.100000000000000E-011
 0.100000000000000E-011
 0.100000000000000E-011
 0.100000000000000E-011
 0.100000000000000E-011
 0.100000000000000E-011
 0.100000000000000E-011
 0.100000000000000E-011
 0.108480354316588E-011
 0.100000000000000E-011
 0.100000000000000E-011
 0.100000000000000E-011
 0.370268843292630E-011
 0.149550711425328E-011
 0.119529607801785E-011
 0.159279238082773E-011
 0.333480569114132E-007
 0.243625239123979E-008
 0.781800211559877E-008
 0.717366332658073E-008
 0.100000000000000E-011
 0.100000000000000E-011
 0.100000000000000E-011
 0.100000000000000E-011
 0.585084675871475E-010
 0.693702239545834E-010
 0.141926825039072E-010
 0.487411760864885E-010
 0.206514993885848E-010
 0.542382027012956E-011
 0.368620077407238E-011
 0.560508959787846E-011
 0.123990654076473E-011
 0.295540834768627E-011
 0.378035109866219E-011
 0.286357709255470E-011
 0.866623122687380E-001
 0.592578709096947E-001
 0.696218658704058E-001
 0.786953154745740E-001
 0.153537221756488E-001
 0.231718723839786E-001
 0.755691845377963E-002
 0.158752443587758E-001
 0.170713615921797E-011
 0.100000000000000E-011
 0.100000000000000E-011
 0.100000000000000E-011
 0.100000000000000E-011
 0.100000000000000E-011
 0.100000000000000E-011
 0.100000000000000E-011
 0.100000000000000E-011
 0.100000000000000E-011
 0.100000000000000E-011
 0.100000000000000E-011
 0.206569338455474E-011
 0.100000000000000E-011
 0.100000000000000E-011
 0.100000000000000E-011
 0.100000000000000E-011
 0.100000000000000E-011
 0.100000000000000E-011
 0.100000000000000E-011
 0.100000000000000E-011
 0.100000000000000E-011
 0.100000000000000E-011
 0.100000000000000E-011
 0.490119926245408E-001
 0.197884802054211E-001
 0.133201924196805E-001
 0.320135286234481E-001
 0.286588103878703E-001
 0.250579678419291E-001
 0.417757141811699E-001
 0.339479078489691E-001
 0.100000000000000E-011
 0.100000000000000E-011
 0.100000000000000E-011
 0.100000000000000E-011
 0.133105742086715E-010
 0.419819920645851E-010
 0.139376364140779E-009
 0.613066977429294E-010
 0.100000000000000E-011
 0.100000000000000E-011
 0.100000000000000E-011
 0.100000000000000E-011
 0.100000000000000E-011
 0.100000000000000E-011
 0.100000000000000E-011
 0.100000000000000E-011
 0.100000000000000E-011
 0.100000000000000E-011
 0.100000000000000E-011
 0.100000000000000E-011
 0.100000000000000E-011
 0.100000000000000E-011
 0.100000000000000E-011
 0.100000000000000E-011
 0.100000000000000E-011
 0.100000000000000E-011
 0.100000000000000E-011
 0.100000000000000E-011
 0.100000000000000E-011
 0.100000000000000E-011
 0.100000000000000E-011
 0.100000000000000E-011
 0.100000000000000E-011
 0.100000000000000E-011
 0.100000000000000E-011
 0.100000000000000E-011
 0.100000000000000E-011
 0.100000000000000E-011
 0.100000000000000E-011
 0.100000000000000E-011
 0.127793212347626E-011
 0.100000000000000E-011
 0.100000000000000E-011
 0.100000000000000E-011
 0.100000000000000E-011
 0.100000000000000E-011
 0.483348223208226E-011
 0.100000000000000E-011
 0.481038876656396E-001
 0.296921806612339E-001
 0.156251038401370E-001
 0.289053190277819E-001
 0.113073354883018E-004
 0.175829018754726E-004
 0.146997071386256E-005
 0.116499384397326E-004
 0.796398902315589E-004
 0.105455551466454E-004
 0.979541468669700E-005
 0.108972441374347E-004
 0.109841714363970E+000
 0.106471758284224E+000
 0.886292736378197E-001
 0.109751986049972E+000
 0.848638103339691E-003
 0.566796799872245E-002
 0.146784270965608E-002
 0.123176256342944E-002
 0.288180210620585E-009
 0.190098770535214E-008
 0.798275865840951E-009
 0.725738028762738E-009
 0.235901146081796E-009
 0.326315198225651E-009
 0.207874382206898E-008
 0.308356784872180E-009
 0.151090213742790E-002
 0.596615297326202E-004
 0.118829783348753E-003
 0.911450898720368E-004
 0.135283843172431E-001
 0.290480218203590E-001
 0.460201809870166E-002
 0.126596811619532E-001
 0.163894293285274E-005
 0.183774005674378E-004
 0.425813987403407E-005
 0.398643983235451E-005
 0.660708594018353E-004
 0.179261349371289E-003
 0.149788763235774E-003
 0.166866534498717E-003
 0.134719987579074E-003
 0.648807492539202E-004
 0.153814258060889E-003
 0.145262693839347E-003
 0.369040307752136E-005
 0.601870715970875E-005
 0.107855130076705E-005
 0.340408504769834E-005
 0.499084051614397E-007
 0.118609339092867E-007
 0.106064924509620E-006
 0.404818457828970E-007
 0.906090015535766E-003
 0.165366404075216E-002
 0.558730452466653E-002
 0.134415360490331E-002
 0.948491032581255E-008
 0.543282158449105E-007
 0.976087142784412E-007
 0.574665740704377E-007
 0.220764753593576E-007
 0.608368754176426E-009
 0.618011077596359E-009
 0.677744415513430E-009
 0.844059242124383E-006
 0.347252717549238E-006
 0.664097180978915E-005
 0.814113878946861E-006
 0.584714257631265E-010
 0.863488376430942E-011
 0.505053751764167E-010
 0.328885779173310E-010
 0.300504094349927E-007
 0.509067787940942E-008
 0.247327285637751E-008
 0.501947152796255E-008
 0.728030010709682E-009
 0.251930603859278E-007
 0.656335784786304E-008
 0.753430112569009E-008
 0.115496753280256E-005
 0.464338250327299E-007
 0.207964948540923E-006
 0.193970117475934E-006
 0.127175912349307E+000
 0.128222008158738E+000
 0.127283979213435E+000
 0.128664753685054E+000
 0.529648631841762E-003
 0.580941118653008E-003
 0.836839418295075E-004
 0.551474535562751E-003
 0.519611610695919E-002
 0.909578284401826E-002
 0.155814928379890E-001
 0.928165986909362E-002
 0.109405256493385E-004
 0.788218972540263E-004
 0.722644479543541E-004
 0.731883504785439E-004
 0.113733666843177E+000
 0.116466239300607E+000
 0.118852550078933E+000
 0.116226470206469E+000
 0.677692254806010E-001
 0.930229454947649E-001
 0.775185281725585E-001
 0.741758030850009E-001
 0.835054137884050E-001
 0.118659252609621E+000
 0.109160362359005E+000
 0.112827903917492E+000
 0.441622144394970E-002
 0.281279121939963E-001
 0.104884191282351E-001
 0.111345060598016E-001
 0.141993701904888E-001
 0.514301366241660E-001
 0.202128848056324E-001
 0.184443755708654E-001
 0.102310955260719E+000
 0.931199292199865E-001
 0.839998817532495E-001
 0.915641252525897E-001
 0.120751586676318E+000
 0.118150333493852E+000
 0.119616882763478E+000
 0.118062404457863E+000
 0.136116848640344E+000
 0.120654463026931E+000
 0.129499987635526E+000
 0.132697459120184E+000
 0.343752610826938E-001
 0.915747134803396E-001
 0.592953211289370E-001
 0.588294862153828E-001
 0.121682104616229E+000
 0.120745836311370E+000
 0.124633162682152E+000
 0.123985802936086E+000
 0.120669145910076E+000
 0.124530218872665E+000
 0.126722841056548E+000
 0.122911363952583E+000
 0.118566138789941E+000
 0.967012086525921E-001
 0.123416825338520E+000
 0.120693587158849E+000
 0.108228717695072E+000
 0.964214992297180E-001
 0.118020737623026E+000
 0.107771173634240E+000
 0.128129272352567E+000
 0.129884554081263E+000
 0.134662039997984E+000
 0.132549815421483E+000
 0.120499098598259E+000
 0.126274180445637E+000
 0.137158893101413E+000
 0.124964529118976E+000
 0.443549403260298E-001
 0.803051403555033E-001
 0.381922509136684E-001
 0.423380900585443E-001
 0.502003337190151E-001
 0.956937224755896E-001
 0.865439085103428E-001
 0.888741997297736E-001
 0.385968211213385E-001
 0.467612641929408E-001
 0.146010721690810E-001
 0.418175769502081E-001
 0.926903923869424E-001
 0.124760152782315E+000
 0.978243294030230E-001
 0.952215372555581E-001
 0.133489741343934E+000
 0.929407865053063E-001
 0.949776652967303E-001
 0.940948872692140E-001
 0.259222447150360E-001
 0.306804979731903E-001
 0.580315161566222E-001
 0.299308921750141E-001
 0.790022998941627E-003
 0.210563473534787E-003
 0.121270951889859E-002
 0.931915212224322E-003
 0.118219534593992E+000
 0.841333257552916E-001
 0.806303802276435E-001
 0.834979436623127E-001
 0.531398924860349E-001
 0.724842084047815E-001
 0.981025981175656E-001
 0.691687830237977E-001
 0.322949043849588E+000
 0.276569223428010E+000
 0.303387500166733E+000
 0.306539933483141E+000
 0.208651059733908E+000
 0.167463112468169E+000
 0.209350511852909E+000
 0.206457761439222E+000
 0.564113280520331E-001
 0.879854177299291E-001
 0.504544274369459E-001
 0.570267483414393E-001
 0.924545905942534E-001
 0.967122524834204E-001
 0.134438703552791E+000
 0.937135620061660E-001
 0.155462766008286E+000
 0.206588438924207E+000
 0.202001916909415E+000
 0.203413594783194E+000
 0.445202944517764E-001
 0.383580883183203E-001
 0.416195567135330E-001
 0.412143879473663E-001
 0.131405813328553E+000
 0.126280795440916E+000
 0.919079411888202E-001
 0.129942464587288E+000
 0.142047788951280E+000
 0.136647385140672E+000
 0.103423865787945E+000
 0.135988182536087E+000
 0.154746089681002E+000
 0.159836404002807E+000
 0.157157846986576E+000
 0.158287199557018E+000
 0.668607906833874E-001
 0.110707459157802E+000
 0.516688798791671E-001
 0.618009072162975E-001
 0.303289386571708E-001
 0.293276931322005E-001
 0.345748602626210E-001
 0.329400523054404E-001
 0.118491262678078E+000
 0.132150490424483E+000
 0.969548749944867E-001
 0.117851084930031E+000
 0.129476449152950E+000
 0.175041615400837E+000
 0.110735969053156E+000
 0.146817722168943E+000
 0.210279683567786E-001
 0.260022931171846E-001
 0.256495409492520E-001
 0.223805255074530E-001
 0.586658022002644E-004
 0.750728819757376E-004
 0.350920991777557E-004
 0.547539415942144E-004
 0.155715958416553E+000
 0.130421607141769E+000
 0.161511165131361E+000
 0.158754496058735E+000
 0.122362624756941E+000
 0.103305518266123E+000
 0.146352032459963E+000
 0.122885477913747E+000
 0.137822113050611E-001
 0.115343198099523E-001
 0.351445493139774E-002
 0.122662264201096E-001
 0.148295798302765E+000
 0.142858431688744E+000
 0.130449255369310E+000
 0.144270213558643E+000
 0.267661695226248E-001
 0.256549333292617E-001
 0.577358139146130E-001
 0.265315478413027E-001
 0.152916771485981E+000
 0.150666125712725E+000
 0.129314351061586E+000
 0.153842713914533E+000
 0.138501877106040E+000
 0.146694138859809E+000
 0.933470552571927E-001
 0.141448499239135E+000
 0.987479324283006E-001
 0.593182606818855E-001
 0.364327787740315E-001
 0.581245179654147E-001
 0.170965022509335E+000
 0.131079419501141E+000
 0.129668484561783E+000
 0.130757893813284E+000
 0.148804137498684E+000
 0.103630695859771E+000
 0.120835126667611E+000
 0.115611203022348E+000
 0.929712069248802E-001
 0.147975879333863E+000
 0.129536541676968E+000
 0.130791846517232E+000
 0.721289691349464E-001
 0.830247385481963E-001
 0.720805096339920E-001
 0.752509728474206E-001
 0.775012863780971E-001
 0.878556869015274E-001
 0.884859028433356E-001
 0.824646782582688E-001
 0.353543490627302E-002
 0.535971764592860E-002
 0.725803661457447E-001
 0.544236811062030E-002
 0.581827135272850E-001
 0.589785234547377E-001
 0.273772051415057E-001
 0.587001790625689E-001
 0.239011885344853E+000
 0.166315550935698E+000
 0.189162545717633E+000
 0.193099911564364E+000
 0.164344467185071E+000
 0.132872587941549E+000
 0.167902964554115E+000
 0.166631922540499E+000
 0.447383286638670E-005
 0.132356801672400E-004
 0.233100389284411E-004
 0.126989847296637E-004
 0.945245339233492E-001
 0.350003250333501E-001
 0.695155675747701E-001
 0.713746834102943E-001
 0.725309801458913E-003
 0.376798471495825E-002
 0.250421654467274E-002
 0.233244032467858E-002
 0.364084283236360E-002
 0.669073150652366E-003
 0.431012768299527E-002
 0.382441170254447E-002
 0.274725422258101E-001
 0.598288680799296E-001
 0.277018457764011E-001
 0.264169570561891E-001
 0.210433609646575E-004
 0.170902319641278E-004
 0.450024821841441E-005
 0.176007412791766E-004
 0.122476659597490E-002
 0.572311759784713E-002
 0.526300017553030E-002
 0.550196099642529E-002
 0.654207285543448E-001
 0.371419597675484E-001
 0.786229834771169E-001
 0.674135015335838E-001
 0.332777070192394E-002
 0.108350075965921E-001
 0.321105194257228E-002
 0.324315270151048E-002
 0.261475783030601E-003
 0.438160838089162E-004
 0.642166717328628E-004
 0.580837924633199E-004
 0.249497741958227E-003
 0.458924685022114E-003
 0.139503801636637E-002
 0.387990234864495E-003
 0.103397271186480E-002
 0.460732013112984E-002