# vtk DataFile Version 3.0
Unstructured Grid
ASCII
DATASET UNSTRUCTURED_GRID
FIELD FieldData 1
TIME 1 1 float
  0.240000E+02
POINTS         2588 double
 0.000000000000000E+000 0.000000000000000E+000 0.000000000000000E+000
 0.100000000000000E+001 0.000000000000000E+000 0.000000000000000E+000
 0.100000000000000E+001 0.100000000000000E+001 0.000000000000000E+000
 0.000000000000000E+000 0.100000000000000E+001 0.000000000000000E+000
 0.125000000000000E+000 0.250000000000000E+000 0.000000000000000E+000
 0.375000000000000E+000 0.250000000000000E+000 0.000000000000000E+000
 0.375000000000000E+000 0.750000000000000E+000 0.000000000000000E+000
 0.125000000000000E+000 0.750000000000000E+000 0.000000000000000E+000
 0.625000000000000E+000 0.250000000000000E+000 0.000000000000000E+000
 0.875000000000000E+000 0.250000000000000E+000 0.000000000000000E+000
 0.875000000000000E+000 0.750000000000000E+000 0.000000000000000E+000
 0.625000000000000E+000 0.750000000000000E+000 0.000000000000000E+000
 0.100000000000000E+001 0.500000000000000E+000 0.000000000000000E+000
 0.000000000000000E+000 0.500000000000000E+000 0.000000000000000E+000
 0.500000000000000E+000 0.000000000000000E+000 0.000000000000000E+000
 0.125000000000000E+000 0.500000000000000E+000 0.000000000000000E+000
 0.000000000000000E+000 0.750000000000000E+000 0.000000000000000E+000
 0.000000000000000E+000 0.250000000000000E+000 0.000000000000000E+000
 0.000000000000000E+000 0.875000000000000E+000 0.000000000000000E+000
 0.000000000000000E+000 0.125000000000000E+000 0.000000000000000E+000
 0.000000000000000E+000 0.812500000000000E+000 0.000000000000000E+000
 0.625000000000000E-001 0.812500000000000E+000 0.000000000000000E+000
 0.125000000000000E+000 0.375000000000000E+000 0.000000000000000E+000
 0.000000000000000E+000 0.375000000000000E+000 0.000000000000000E+000
 0.125000000000000E+000 0.625000000000000E+000 0.000000000000000E+000
 0.312500000000000E-001 0.781250000000000E+000 0.000000000000000E+000
 0.000000000000000E+000 0.625000000000000E+000 0.000000000000000E+000
 0.781250000000000E-001 0.765625000000000E+000 0.000000000000000E+000
 0.364583333333333E-001 0.744791666666667E+000 0.000000000000000E+000
 0.000000000000000E+000 0.687500000000000E+000 0.000000000000000E+000
 0.312500000000000E-001 0.843750000000000E+000 0.000000000000000E+000
 0.500000000000000E+000 0.100000000000000E+001 0.000000000000000E+000
 0.117915518486872E+000 0.805415518486872E+000 0.000000000000000E+000
 0.531250000000000E-001 0.896875000000000E+000 0.000000000000000E+000
 0.128125000000000E+000 0.862500000000000E+000 0.000000000000000E+000
 0.852352799227800E-001 0.850726351351351E+000 0.000000000000000E+000
 0.250000000000000E+000 0.750000000000000E+000 0.000000000000000E+000
 0.000000000000000E+000 0.937500000000000E+000 0.000000000000000E+000
 0.250000000000000E+000 0.100000000000000E+001 0.000000000000000E+000
 0.125000000000000E+000 0.100000000000000E+001 0.000000000000000E+000
 0.559955578663221E-001 0.864626829113867E+000 0.000000000000000E+000
 0.201656717908302E+000 0.819893736067327E+000 0.000000000000000E+000
 0.181985294117647E-001 0.906250000000000E+000 0.000000000000000E+000
 0.157158578892515E+000 0.827852167423944E+000 0.000000000000000E+000
 0.173219498992632E+000 0.789273026175030E+000 0.000000000000000E+000
 0.190370748034901E+000 0.885171153579592E+000 0.000000000000000E+000
 0.163362285670037E+000 0.862539079232243E+000 0.000000000000000E+000
 0.145689809422689E+000 0.911060496538305E+000 0.000000000000000E+000
 0.260169562085505E+000 0.921822264266383E+000 0.000000000000000E+000
 0.999952720236157E-001 0.900131729869707E+000 0.000000000000000E+000
 0.181336648989602E+000 0.921080529637299E+000 0.000000000000000E+000
 0.187500000000000E+000 0.100000000000000E+001 0.000000000000000E+000
 0.625000000000000E-001 0.100000000000000E+001 0.000000000000000E+000
 0.391044682108720E-001 0.939348618511729E+000 0.000000000000000E+000
 0.987901813178879E-001 0.953497897705852E+000 0.000000000000000E+000
 0.127430470763290E+000 0.938015442955272E+000 0.000000000000000E+000
 0.735147503821561E-001 0.927156548383149E+000 0.000000000000000E+000
 0.187500000000000E+000 0.750000000000000E+000 0.000000000000000E+000
 0.937500000000000E-001 0.986976003387646E+000 0.000000000000000E+000
 0.647068558612996E-001 0.964310770745732E+000 0.000000000000000E+000
 0.287348941263244E-001 0.975594752089430E+000 0.000000000000000E+000
 0.140548246895551E+000 0.780148342865875E+000 0.000000000000000E+000
 0.625000000000000E-001 0.656250000000000E+000 0.000000000000000E+000
 0.885416666666667E-001 0.718750000000000E+000 0.000000000000000E+000
 0.125000000000000E+000 0.687500000000000E+000 0.000000000000000E+000
 0.418778153153153E-001 0.701096693284193E+000 0.000000000000000E+000
 0.130000591648319E-001 0.718750000000000E+000 0.000000000000000E+000
 0.886787280701754E-001 0.682017543859649E+000 0.000000000000000E+000
 0.324539302647226E+000 0.874753539998500E+000 0.000000000000000E+000
 0.220842706957930E+000 0.911928394103011E+000 0.000000000000000E+000
 0.255656705174793E+000 0.856653769033302E+000 0.000000000000000E+000
 0.230240640268531E+000 0.957679342037283E+000 0.000000000000000E+000
 0.247273788001812E+000 0.889974781313083E+000 0.000000000000000E+000
 0.287822583654814E+000 0.892090285129540E+000 0.000000000000000E+000
 0.375000000000000E+000 0.100000000000000E+001 0.000000000000000E+000
 0.312500000000000E+000 0.100000000000000E+001 0.000000000000000E+000
 0.296339471848887E+000 0.927737349884604E+000 0.000000000000000E+000
 0.272754945277513E+000 0.963602684427479E+000 0.000000000000000E+000
 0.218750000000000E+000 0.100000000000000E+001 0.000000000000000E+000
 0.156250000000000E+000 0.970185411869689E+000 0.000000000000000E+000
 0.193067439035452E+000 0.962879965079150E+000 0.000000000000000E+000
 0.366022419631980E+000 0.930828672570042E+000 0.000000000000000E+000
 0.331917636626289E+000 0.912676918057824E+000 0.000000000000000E+000
 0.218750000000000E+000 0.780050991479902E+000 0.000000000000000E+000
 0.270314960374965E+000 0.802399429390985E+000 0.000000000000000E+000
 0.239019213447470E+000 0.823051378525603E+000 0.000000000000000E+000
 0.312500000000000E+000 0.750000000000000E+000 0.000000000000000E+000
 0.297176692881550E+000 0.838764170920897E+000 0.000000000000000E+000
 0.316491084060399E+000 0.796393690767677E+000 0.000000000000000E+000
 0.343750000000000E+000 0.770680188507291E+000 0.000000000000000E+000
 0.409908719410776E+000 0.836702006091634E+000 0.000000000000000E+000
 0.362591033297072E+000 0.817958948082628E+000 0.000000000000000E+000
 0.401086171766563E+000 0.789875587437421E+000 0.000000000000000E+000
 0.371341896832358E+000 0.864966336467817E+000 0.000000000000000E+000
 0.333452116450771E+000 0.839580614538559E+000 0.000000000000000E+000
 0.625000000000000E+000 0.500000000000000E+000 0.000000000000000E+000
 0.497245004128187E+000 0.796002674320860E+000 0.000000000000000E+000
 0.375000000000000E+000 0.625000000000000E+000 0.000000000000000E+000
 0.448383797292392E+000 0.805208595628784E+000 0.000000000000000E+000
 0.410140101146819E+000 0.755482168792868E+000 0.000000000000000E+000
 0.466643384891561E+000 0.767852445997818E+000 0.000000000000000E+000
 0.476967665188550E+000 0.732032311892081E+000 0.000000000000000E+000
 0.540753556856103E+000 0.747012385328872E+000 0.000000000000000E+000
 0.490851671729155E+000 0.896339978179292E+000 0.000000000000000E+000
 0.457989751325779E+000 0.856193010026991E+000 0.000000000000000E+000
 0.477617377726983E+000 0.826097842173926E+000 0.000000000000000E+000
 0.546397010943533E+000 0.849506899903764E+000 0.000000000000000E+000
 0.514994092174850E+000 0.829026377565149E+000 0.000000000000000E+000
 0.557956128164421E+000 0.797467818442289E+000 0.000000000000000E+000
 0.513053884697208E+000 0.866316721845202E+000 0.000000000000000E+000
 0.531719458287368E+000 0.903340824708691E+000 0.000000000000000E+000
 0.750000000000000E+000 0.100000000000000E+001 0.000000000000000E+000
 0.503122841217304E+000 0.947490703764094E+000 0.000000000000000E+000
 0.428509525448068E+000 0.913846660476909E+000 0.000000000000000E+000
 0.625000000000000E+000 0.100000000000000E+001 0.000000000000000E+000
 0.410139362032626E+000 0.877461197108989E+000 0.000000000000000E+000
 0.393550593852374E+000 0.908666538512922E+000 0.000000000000000E+000
 0.455853425536278E+000 0.891464570133054E+000 0.000000000000000E+000
 0.465565809489837E+000 0.931223943045515E+000 0.000000000000000E+000
 0.430803944763131E+000 0.957152995135723E+000 0.000000000000000E+000
 0.361862549463301E+000 0.897277191535820E+000 0.000000000000000E+000
 0.281250000000000E+000 0.768022264880110E+000 0.000000000000000E+000
 0.528016132294562E+000 0.779515446907155E+000 0.000000000000000E+000
 0.582435077211395E+000 0.760961532636893E+000 0.000000000000000E+000
 0.594258447236559E+000 0.718750000000000E+000 0.000000000000000E+000
 0.513210480866922E+000 0.721000388231171E+000 0.000000000000000E+000
 0.625000000000000E+000 0.625000000000000E+000 0.000000000000000E+000
 0.293099715520438E+000 0.681007179427844E+000 0.000000000000000E+000
 0.625000000000000E+000 0.687500000000000E+000 0.000000000000000E+000
 0.375000000000000E+000 0.500000000000000E+000 0.000000000000000E+000
 0.588365877190365E+000 0.682207614843486E+000 0.000000000000000E+000
 0.544806337802789E+000 0.700097114505632E+000 0.000000000000000E+000
 0.473117607324743E+000 0.654334216996401E+000 0.000000000000000E+000
 0.507976816774602E+000 0.678758937084175E+000 0.000000000000000E+000
 0.471770128441152E+000 0.693345422145358E+000 0.000000000000000E+000
 0.540484989053884E+000 0.595274872726202E+000 0.000000000000000E+000
 0.434924684287812E+000 0.717988149163748E+000 0.000000000000000E+000
 0.438762107036035E+000 0.672676424045669E+000 0.000000000000000E+000
 0.514022824851611E+000 0.633041943182225E+000 0.000000000000000E+000
 0.375000000000000E+000 0.687500000000000E+000 0.000000000000000E+000
[...]
CELL_DATA         5036
SCALARS tdens double 1
LOOKUP_TABLE default
 0.531303366673444E-003
 0.108187810286642E-002
 0.673610029222921E-003
 0.697511478736535E-003
 0.106305759711675E-001
 0.810216931697764E-002
 0.857294515259328E-002
 0.866853604387032E-002
 0.900150115943385E-001
 0.101443389591396E+000
 0.101040040914673E+000
 0.100480804225220E+000
 0.941304618083150E-003
 0.656870786196833E-003
 0.850387180348212E-003
 0.812281903237869E-003
 0.148795514081567E-002
 0.123718044144686E-002
 0.102877562306570E-002
 0.120953853193446E-002
 0.148738225158293E-003
 0.137840048004517E-003
 0.965986181642711E-004
 0.117764312316562E-003
 0.623326333729204E-001
 0.572226157044198E-001
 0.858617806511823E-001
 0.609104869011295E-001
 0.731852111584567E-001
 0.803426461584217E-001
 0.716614363857893E-001
 0.733047789590889E-001
 0.135580899832456E+000
 0.143216271398254E+000
 0.148812469696905E+000
 0.145309906856122E+000
 0.247549068368083E-002
 0.228554265383765E-002
 0.205819875002043E-002
 0.229790334216519E-002
 0.552803090354674E-002
 0.668361043804797E-002
 0.671807537596472E-002
 0.652068385347444E-002
 0.142165372488919E-001
 0.179288570463378E-001
 0.161437180984356E-001
 0.158463084162510E-001
 0.798315823402480E-002
 0.422224921739284E-002
 0.219990533972023E-002
 0.373540996877512E-002
 0.148979037348582E+000
 0.102377103302087E+000
 0.121475851772187E+000
 0.113049623605948E+000
 0.418707789614165E-001
 0.333385442047203E-001
 0.352201002079958E-001
 0.353055914887866E-001
 0.124817495982097E+000
 0.115141508728149E+000
 0.152302330070018E+000
 0.121154854502557E+000
 0.962214610110529E-002
 0.113751370547042E-001
 0.920061537054748E-002
 0.966452924711253E-002
 0.571367673691607E-002
 0.159685677873417E-001
 0.978499345080264E-002
 0.110541012586722E-001
 0.727742319765737E-003
 0.689371485348240E-003
 0.682316047259202E-003
 0.687270953221989E-003
 0.799061831886499E-001
 0.804918488625217E-001
 0.745144062978267E-001
 0.801189736085326E-001
 0.183363267392137E-001
 0.220667524581745E-001
 0.152392384449152E-001
 0.187608291572062E-001
 0.420874090801139E-003
 0.408023773423383E-003
 0.423377447267620E-003
 0.417525376942552E-003
 0.121442256914888E+000
 0.119652407689372E+000
 0.119221295715814E+000
 0.120157387969840E+000
 0.499576231340436E-003
 0.430271487331363E-003
 0.442643352241328E-003
 0.453043991239644E-003
 0.838435208742642E-001
 0.758984042653078E-001
 0.714409746622807E-001
 0.746189321754266E-001
 0.783791258801407E-001
 0.790679900098249E-001
 0.683041641265518E-001
 0.767542008051128E-001
 0.752968506558110E-003
 0.153411723032469E-002
 0.102679278180623E-002
 0.102639400665027E-002
 0.242289078144883E-001
 0.144770910836577E-001
 0.211951423599150E-001
 0.212475370578882E-001
 0.582162469583519E-001
 0.363434185912335E-001
 0.558583135846323E-001
 0.544861940290607E-001
 0.680239567293508E-002
 0.534997238709860E-002
 0.569851255638755E-002
 0.579454213312833E-002
 0.334294958550221E-002
 0.270814607335885E-002
 0.409723709381047E-002
 0.329110458639200E-002
 0.303467629968313E-002
 0.421732335025007E-002
 0.696849158491438E-002
 0.403290951571796E-002
 0.960704542826601E-003
 0.402460800398805E-003
 0.244262628484816E-003
 0.422744405561732E-003
 0.658187416644914E-002
 0.106532799622465E-001
 0.182696124316887E-001
 0.131227151579862E-001
 0.790054560400980E-003
 0.629344473605151E-003
 0.536252398299970E-003
 0.659861669947146E-003
 0.399487255399489E-003
 0.417212538934883E-003
 0.401442778649510E-003
 0.406168032475734E-003
 0.933158224385702E-003
 0.773240741477740E-003
 0.717042441720135E-003
 0.804253532996793E-003
 0.422729772882973E-003
 0.380931087772980E-003
 0.416221039772125E-003
 0.406990800281208E-003
 0.299976665139254E-003
 0.410735764955943E-003
 0.674839251948670E-003
 0.363518145026529E-003
 0.404335155756288E-003
 0.456484229168851E-003
 0.432040397657857E-003
 0.425603320934926E-003
 0.549820398276975E-003
 0.457793729693532E-003
 0.516102403299453E-003
 0.502593265273967E-003
 0.350656265887421E-001
 0.416370417044614E-001
 0.507485560747112E-001
 0.482025098717689E-001
 0.398220756651434E-003
 0.430432114162861E-003
 0.408527589372570E-003
 0.410712011846049E-003
 0.429422935778219E-003
 0.510861444399372E-003
 0.455953736595834E-003
 0.459142335477617E-003
 0.392265166686138E-003
 0.386559177050941E-003
 0.386816400387240E-003
 0.387438621122216E-003
 0.324756861597625E-003
 0.417811324203158E-003
 0.425521252434714E-003
 0.386439044778558E-003
 0.246468308654658E-001
 0.264538477360593E-001
 0.271600964402645E-001
 0.263624584616061E-001
 0.575595298982429E-003
 0.738121759234408E-003
 0.517020877083034E-003
 0.594648600553587E-003
 0.206096335125720E-002
 0.246869229483419E-002
 0.928715394887933E-002
 0.508893203264479E-002
 0.367131505359838E-003
 0.468503477950868E-003
 0.426593788651958E-003
 0.416822611982320E-003
 0.692099226594193E-003
 0.652209775210191E-003
 0.127493361062189E-002
 0.790264455020530E-003
 0.167269393010163E-002
 0.113672078775483E-002
 0.110629453882959E-002
 0.123661487717324E-002
 0.306607071375130E-002
 0.133440207555622E-002
 0.337717669555566E-002
 0.267498602524546E-002
 0.382185075060934E-003
 0.437252311145331E-003
 0.469157178526493E-003
 0.418337768220305E-003
 0.564553379811960E-003
 0.536465325910460E-003
 0.479765145825029E-003
 0.526995069260970E-003
 0.638595761745683E-003
 0.858788908724635E-003
 0.860426140979930E-003
 0.782899221851824E-003
 0.320305955208232E-003
 0.340812113338208E-003
 0.382015631765306E-003
 0.350879994148855E-003
 0.434076576109162E-001
 0.303165874437188E-001
 0.555418123505622E-001
 0.364436505536338E-001
 0.129212645139130E-001
 0.141177480856852E-001
 0.232368212630127E-001
 0.142516489623279E-001
 0.640234832786240E-003
 0.790356635278462E-003
 0.604609806835147E-003
 0.671242644965943E-003
 0.117975809983024E-001
 0.104195347602238E-001
 0.155358336059924E-001
 0.119246135140169E-001
 0.115177288232471E-002
 0.117091149990609E-002
 0.222135806032529E-002
 0.135910148631268E-002
 0.121317399235096E-001
 0.201966584426762E-001
 0.402821347318015E-002
 0.138324727751094E-001
 0.575056134590403E-003
 0.534768685185473E-003
 0.747577959793091E-003
 0.611453546338561E-003
 0.248140946993653E-003
 0.323475208482626E-003
 0.293838167745438E-003
 0.287202463462186E-003
 0.680210570218257E-003
 0.979459238838086E-003
 0.144290365783366E-002
 0.104627839640356E-002
 0.426201054706235E-001
 0.289650299970995E-001
 0.176362604337204E-001
 0.304326381258276E-001
 0.765550327585313E-001
 0.919179866918979E-001
 0.921113851719072E-001
 0.835573630202328E-001
 0.135021019250996E-001
 0.255686106882896E-001
 0.430641529817124E-001
 0.352781733025677E-001
 0.538363347527851E-001
 0.676834667011650E-001
 0.754082431679800E-001
 0.638669125347968E-001
 0.112098847282277E-001
 0.206569282798154E-001
 0.169131721134489E-001
 0.176417012528327E-001
 0.455410300931971E-001
 0.187401073866693E-001
 0.306143306472793E-001
 0.282715246314024E-001
 0.326879781280743E-002
 0.702349652725302E-002
 0.712975705364029E-002
 0.626548681497280E-002
 0.401317614388464E-002
 0.308972255391084E-002
 0.657457992722844E-002
 0.413177460646367E-002
 0.655272427411907E-003
 0.905132059088845E-003
 0.928904215677818E-003
 0.837244610309042E-003
 0.490486987782728E-002
 0.735150627348025E-002
 0.848794298031459E-002
 0.719777499544957E-002
 0.841581559843976E-003
 0.601216244171542E-003
 0.590915284326647E-003
 0.651438070677406E-003
 0.239273850618356E-002
 0.199259379386997E-002
 0.126758362727942E-002
 0.188826440657333E-002
 0.258674821084819E-002
 0.134533138260950E-002
 0.202663870349261E-002
 0.202880539548828E-002
 0.459067530281047E-002
 0.745182992553186E-002
 0.696977192829446E-002
 0.684991213791569E-002
 0.135325469058150E-001
 0.198205840550561E-001
 0.148413223379147E-001
 0.150514706196063E-001
 0.497155501882360E-003
 0.410071550466636E-003
 0.486058977266892E-003
 0.471983485315162E-003
 0.290551904326237E-002
 0.568404791245476E-002
 0.394150332864272E-002
 0.387005148035508E-002
 0.197332977525453E-003
 0.231222429015400E-003
 0.177821747300194E-003
 0.203518076661666E-003
 0.278603309161160E-003
 0.259436730916707E-003
 0.228447807100397E-003
 0.248315853895696E-003
 0.382989949773643E-003
 0.299597607994370E-003
 0.310471266954950E-003
 0.330653109288520E-003
 0.448485991651546E-003
 0.372787274536886E-003
 0.334866409901774E-003
 0.383991715861360E-003
 0.299828528369664E-002
 0.213564565071588E-002
 0.221072333391652E-002
 0.240273997174159E-002
 0.170773275262228E-003
 0.151104536606425E-003
 0.110170108039239E-003
 0.137133544375025E-003
 0.864752832860049E-003
 0.899925440502337E-003
 0.652629728675239E-003
 0.792812481644178E-003
 0.717508670543571E-003
 0.518551022835738E-003
 0.502561122852640E-003
 0.563712508872665E-003
 0.353285783642428E-003
 0.447075438212008E-003
 0.473289052399821E-003
 0.420321458289192E-003
 0.727682194090636E-001
 0.496978408595422E-001
 0.605623611124819E-001
 0.685144401611263E-001
 0.129537830498480E-001
 0.230835678426049E-001
 0.478978581022437E-002
 0.182844572467630E-001
 0.462239023223354E-003
 0.296100867805081E-003
 0.373193211072847E-003
 0.367641264142068E-003
 0.290670318146429E-003
 0.332464221216134E-003
 0.258962644601524E-003
 0.283954316114985E-003
 0.153971948322270E-003
 0.181975769536126E-003
 0.112032122517148E-003
 0.142509329534811E-003
 0.397915630786245E-003
 0.313337179322962E-003
 0.298640087200544E-003
 0.334594709873847E-003
 0.253550370413163E-003
 0.264308785923014E-003
 0.197075202084872E-003
 0.233137772003565E-003
 0.216045507309636E-003
 0.183703320247385E-003
 0.250179812743803E-003
 0.217496603341731E-003
 0.447514411885058E-001
 0.219350141604663E-001
 0.130766792529174E-001
 0.256164306631586E-001
 0.320949882586899E-001
 0.238030971748693E-001
 0.379203276551155E-001
 0.281436246726447E-001
 0.512156583973045E-003
 0.371813006180067E-003
 0.642580528502124E-003
 0.502568995386319E-003
 0.880913538155069E-003
 0.121160868456661E-002
 0.146365129977985E-002
 0.116925555523229E-002
 0.312323962183266E-003
 0.215281667331362E-003
 0.249757855393147E-003
 0.263321964214960E-003
 0.252044305968025E-003
 0.326399599087874E-003
 0.323356611885911E-003
 0.293320405321453E-003
 0.306772839465782E-003
 0.369721665841160E-003
 0.341548692174060E-003
 0.338844638688732E-003
 0.385325883587989E-003
 0.337381947821872E-003
 0.439715735271147E-003
 0.382931730580644E-003
 0.387413343891406E-003
 0.391025245571967E-003
 0.395688610974829E-003
 0.391605957892510E-003
 0.367938495310166E-003
 0.388739912019029E-003
 0.390972770562497E-003
 0.381931748569896E-003
 0.385007417567869E-003
 0.369056455436135E-003
 0.381907601172421E-003
 0.379853210083004E-003
 0.380523310942742E-003
 0.380780863157879E-003
 0.363100739240419E-003
 0.375464662287671E-003
 0.236882720270588E-003
 0.225720793114475E-003
 0.172593132317520E-003
 0.163968825212254E-003
 0.267647058745088E-003
 0.346632972408402E-003
 0.483247559813439E-003
 0.356429329657911E-003
 0.570066677107124E-001
 0.510878659868959E-001
 0.449052307363237E-001
 0.517108743150450E-001
 0.987822822015373E-002
 0.111989762077486E-001
 0.714639222337700E-002
 0.976161517109897E-002
 0.174436442342914E-001
 0.117050365329741E-001
 0.108051452584071E-001
 0.119895458132094E-001
 0.863073410996198E-001
 0.802160090646121E-001
 0.752417225950606E-001
 0.841297792220872E-001
 0.217403193646794E-001
 0.326633564961278E-001
 0.255618706096535E-001
 0.261265854727816E-001
 0.150604285395094E-002
 0.182020205698131E-002
 0.186942036597906E-002
 0.169975385671844E-002
 0.133691107595266E-002
 0.121572900442963E-002
 0.167496147035007E-002
 0.136781509399325E-002
 0.216540278532845E-001
 0.111379444502109E-001
 0.121740236721481E-001
 0.124055535480915E-001
 0.418882833314047E-001
 0.516348086072917E-001
 0.332730565095733E-001
 0.399250091374678E-001
 0.725562311166195E-002
 0.111867922345863E-001
 0.886221925436386E-002
 0.861756446319318E-002
 0.137340456256533E-001
 0.174936424706184E-001
 0.200088148908753E-001
 0.173469323629649E-001
 0.204057998073489E-001
 0.156496995821089E-001
 0.211350091849237E-001
 0.202483058579897E-001
 0.109167974285326E-001
 0.129554566688431E-001
 0.107918474447116E-001
 0.113717046490305E-001
 0.530957944071484E-002
 0.373849783510791E-002
 0.494622958826307E-002
 0.465161235238589E-002
 0.264789517912592E-001
 0.281733336795384E-001
 0.356482059410325E-001
 0.280137877148145E-001
 0.331874889007296E-002
 0.376999591335447E-002
 0.464949884723286E-002
 0.390243860276802E-002
 0.240231283450414E-002
 0.128643938699763E-002
 0.126421586843881E-002
 0.147121862857485E-002
 0.609524377570557E-002
 0.495244562221552E-002
 0.837108250472019E-002
 0.602110046055574E-002
 0.110766365722754E-002
 0.712394129846474E-003
 0.958278400181980E-003
 0.906121370470391E-003
 0.315049229802257E-002
 0.287590703781806E-002
 0.235359586027681E-002
 0.266942444144514E-002
 0.144605121307287E-002
 0.259943263133058E-002
 0.203520004886236E-002
 0.191984302602201E-002
 0.568446753992812E-002
 0.278953655329823E-002
 0.381875749853567E-002
 0.386656249637192E-002
 0.802569649751985E-001
 0.788844023577425E-001
 0.813810686637331E-001
 0.802183669103981E-001
 0.284263741711929E-001
 0.293919767536318E-001
 0.224458490804078E-001
 0.277021545929288E-001
 0.373670759857400E-001
 0.410114060774592E-001
 0.465251308985119E-001
 0.407983772230704E-001
 0.127017963759678E-001
 0.185010450280430E-001
 0.180995284478636E-001
 0.173592834654898E-001
 0.930652369626121E-001
 0.904846760753328E-001
 0.874348564722804E-001
 0.902573895857322E-001
 0.573532012255385E-001
 0.776049841946130E-001
 0.656394996577247E-001
 0.602651037022726E-001
 0.674662098478312E-001
 0.775720121099620E-001
 0.736664598214985E-001
 0.752282358630765E-001
 0.321472471731557E-001
 0.494178682610164E-001
 0.400785684675801E-001
 0.414837548464049E-001
 0.368932943866500E-001
 0.576199970031351E-001
 0.428552314892238E-001
 0.441304474974651E-001
 0.816387742983950E-001
 0.786193416705118E-001
 0.684436856432653E-001
 0.786549751992461E-001
 0.854325940472380E-001
 0.886408647586802E-001
 0.868597885372122E-001
 0.885471373996045E-001
 0.114813962118792E+000
 0.103523297084629E+000
 0.111497877139945E+000
 0.111844820194652E+000
 0.508963819611012E-001
 0.724853495603663E-001
 0.606696545249150E-001
 0.631712386030016E-001
 0.844083981752589E-001
 0.858048616971378E-001
 0.831531957941984E-001
 0.840640894559387E-001
 0.786740714994842E-001
 0.796296074076312E-001
 0.821804328231443E-001
 0.800934843449323E-001
 0.770436026229430E-001
 0.731527117943628E-001
 0.787433455241942E-001
 0.772747614388620E-001
 0.737521657675897E-001
 0.719467407378713E-001
 0.767423939569068E-001
 0.730889215643883E-001
 0.780339833590283E-001
 0.798273143346846E-001
 0.796277495092114E-001
 0.798895360930836E-001
 0.747405062231817E-001
 0.766637927728361E-001
 0.798082924134154E-001
 0.761708147590955E-001
 0.558475888408605E-001
 0.653088424728963E-001
 0.542473210452363E-001
 0.559661535431959E-001
 0.580188217448279E-001
 0.697876822839026E-001
 0.671752566099628E-001
 0.674810536703017E-001
 0.558106747859140E-001
 0.579710348282249E-001
 0.455388532055300E-001
 0.550417989541710E-001
 0.752865859187116E-001
 0.791220629259588E-001
 0.733675370040343E-001
 0.748243792323381E-001
 0.839400104018360E-001
 0.800465621870270E-001
 0.855898858722432E-001
 0.822692828561854E-001
 0.508714202103193E-001
 0.521735670320004E-001
 0.608195452799472E-001
 0.525816568354355E-001
 0.286310034593835E-001
 0.230313691422373E-001
 0.296607404809219E-001
 0.286612516541448E-001
 0.778430367310318E-001
 0.674540139206900E-001
 0.670122202932080E-001
 0.688471714317750E-001
 0.587750612229654E-001
 0.641985942810449E-001
 0.706628046368939E-001
 0.628033464606636E-001
 0.229522403975591E+000
 0.193036982212737E+000
 0.212749133131908E+000
 0.214790370167912E+000
 0.184431913729764E+000
 0.162531581822570E+000
 0.178923750931970E+000
 0.179693521347767E+000
 0.109452451137084E+000
 0.121514757417399E+000
 0.111502160737519E+000
 0.113037411771716E+000
 0.712284675956572E-001
 0.702446490330595E-001
 0.784698147928513E-001
 0.717139037968772E-001
 0.142487249858596E+000
 0.160890408585870E+000
 0.148976913707370E+000
 0.154386200036834E+000
 0.103582463263299E+000
 0.927899603649179E-001
 0.100753947255688E+000
 0.100647121912771E+000
 0.821465823612805E-001
 0.799972886797330E-001
 0.773108634447204E-001
 0.812863303650534E-001
 0.806082027173187E-001
 0.794189533076219E-001
 0.718650784076742E-001
 0.790116104891719E-001
 0.125976230963136E+000
 0.121694619232394E+000
 0.120632733988073E+000
 0.121652529172797E+000
 0.966202014669029E-001
 0.109935637024059E+000
 0.950080476289333E-001
 0.979749528245844E-001
 0.783415374964395E-001
 0.857738257514242E-001
 0.860094248673593E-001
 0.828847885717663E-001
 0.899367137533652E-001
 0.851337965635636E-001
 0.878040301686197E-001
 0.881550241912031E-001
 0.154483251428379E+000
 0.184283217021878E+000
 0.144460892379144E+000
 0.166922198056719E+000
 0.718940162653640E-001
 0.786977282941863E-001
 0.663437552608875E-001
 0.742855124134082E-001
 0.205369740627491E-001
 0.220749373188309E-001
 0.179790526760060E-001
 0.203414152267966E-001
 0.931339619730067E-001
 0.107071032904484E+000
 0.935879424368263E-001
 0.948978012082635E-001
 0.947470282588932E-001
 0.101278564636328E+000
 0.923393186351087E-001
 0.975343576099214E-001
 0.460219847619475E-001
 0.449401084295613E-001
 0.364409042079483E-001
 0.444766271230115E-001
 0.846576065579943E-001
 0.846407799651710E-001
 0.903303523225251E-001
 0.855568392900952E-001
 0.517809374556698E-001
 0.508036162054029E-001
 0.607291344018263E-001
 0.525753510294973E-001
 0.896144974615661E-001
 0.857367982878432E-001
 0.920892095969708E-001
 0.877396339045196E-001
 0.807936922436466E-001
 0.838737238171596E-001
 0.734550022993805E-001
 0.810334284798063E-001
 0.768063149763963E-001
 0.677567136803880E-001
 0.588061428650460E-001
 0.667263732968173E-001
 0.110402583976018E+000
 0.116902425426056E+000
 0.129325078175377E+000
 0.120752471161087E+000
 0.941863715293395E-001
 0.104105891678051E+000
 0.107496017329988E+000
 0.104943616374006E+000
 0.733946011232134E-001
 0.845287202921867E-001
 0.822916420129133E-001
 0.817322613938560E-001
 0.129390249377852E+000
 0.138668274513037E+000
 0.121776049396839E+000
 0.132514510467859E+000
 0.124852270843942E+000
 0.142546269311625E+000
 0.137965205928485E+000
 0.133640636458926E+000
 0.431160505962829E-001
 0.541745067414973E-001
 0.788057745593920E-001
 0.597834502280493E-001
 0.624120517451661E-001
 0.637622309319640E-001
 0.536963205243949E-001
 0.618016636512163E-001
 0.236774476079581E+000
 0.199788748987784E+000
 0.207466791135911E+000
 0.214696133370765E+000
 0.955915669799005E-001
 0.110040594696743E+000
 0.103422247394633E+000
 0.101075683359786E+000
 0.156941003263862E-001
 0.154468014879417E-001
 0.178234603201260E-001
 0.158801057043599E-001
 0.752406758448239E-001
 0.580361291707765E-001
 0.675887530443164E-001
 0.684384353289998E-001
 0.322503570248493E-001
 0.426683636183234E-001
 0.401350337636612E-001
 0.389746047270522E-001
 0.427612853922538E-001
 0.322692577512816E-001
 0.425641684477719E-001
 0.413566881128686E-001
 0.530178069775228E-001
 0.637401183878171E-001
 0.542801023115264E-001
 0.542105493242116E-001
 0.184222310907580E-001
 0.188844764007667E-001
 0.164667328998625E-001
 0.180212119192848E-001
 0.338965152964297E-001
 0.425575920831261E-001
 0.429261201427324E-001
 0.418893533169451E-001
 0.626942680140977E-001
 0.543987427609069E-001
 0.652462529658309E-001
 0.627347181806713E-001
 0.356390300345185E-001
 0.438593547961167E-001
 0.360330354185787E-001
 0.366882566977481E-001
 0.264425939877141E-001
 0.213852319329069E-001
 0.215767954191201E-001
 0.221907015961218E-001
 0.229056108899444E-001
 0.247435014374874E-001
 0.296516130730475E-001
 0.245403113543564E-001
 0.325920700337865E-001
 0.415303319465427E-001