# vtk DataFile Version 3.0
Unstructured Grid
ASCII
DATASET UNSTRUCTURED_GRID
FIELD FieldData 1
TIME 1 1 float
  0.324375E+02
POINTS         2588 double
 0.000000000000000E+000 0.000000000000000E+000 0.000000000000000E+000
 0.100000000000000E+001 0.000000000000000E+000 0.000000000000000E+000
 0.100000000000000E+001 0.100000000000000E+001 0.000000000000000E+000
 0.000000000000000E+000 0.100000000000000E+001 0.000000000000000E+000
 0.125000000000000E+000 0.250000000000000E+000 0.000000000000000E+000
 0.375000000000000E+000 0.250000000000000E+000 0.000000000000000E+000
 0.375000000000000E+000 0.750000000000000E+000 0.000000000000000E+000
 0.125000000000000E+000 0.750000000000000E+000 0.000000000000000E+000
 0.625000000000000E+000 0.250000000000000E+000 0.000000000000000E+000
 0.875000000000000E+000 0.250000000000000E+000 0.000000000000000E+000
 0.875000000000000E+000 0.750000000000000E+000 0.000000000000000E+000
 0.625000000000000E+000 0.750000000000000E+000 0.000000000000000E+000
 0.100000000000000E+001 0.500000000000000E+000 0.000000000000000E+000
 0.000000000000000E+000 0.500000000000000E+000 0.000000000000000E+000
 0.500000000000000E+000 0.000000000000000E+000 0.000000000000000E+000
 0.125000000000000E+000 0.500000000000000E+000 0.000000000000000E+000
 0.000000000000000E+000 0.750000000000000E+000 0.000000000000000E+000
 0.000000000000000E+000 0.250000000000000E+000 0.000000000000000E+000
 0.000000000000000E+000 0.875000000000000E+000 0.000000000000000E+000
 0.000000000000000E+000 0.125000000000000E+000 0.000000000000000E+000
 0.000000000000000E+000 0.812500000000000E+000 0.000000000000000E+000
 0.625000000000000E-001 0.812500000000000E+000 0.000000000000000E+000
 0.125000000000000E+000 0.375000000000000E+000 0.000000000000000E+000
 0.000000000000000E+000 0.375000000000000E+000 0.000000000000000E+000
 0.125000000000000E+000 0.625000000000000E+000 0.000000000000000E+000
 0.312500000000000E-001 0.781250000000000E+000 0.000000000000000E+000
 0.000000000000000E+000 0.625000000000000E+000 0.000000000000000E+000
 0.781250000000000E-001 0.765625000000000E+000 0.000000000000000E+000
 0.364583333333333E-001 0.744791666666667E+000 0.000000000000000E+000
 0.000000000000000E+000 0.687500000000000E+000 0.000000000000000E+000
 0.312500000000000E-001 0.843750000000000E+000 0.000000000000000E+000
 0.500000000000000E+000 0.100000000000000E+001 0.000000000000000E+000
 0.117915518486872E+000 0.805415518486872E+000 0.000000000000000E+000
 0.531250000000000E-001 0.896875000000000E+000 0.000000000000000E+000
 0.128125000000000E+000 0.862500000000000E+000 0.000000000000000E+000
 0.852352799227800E-001 0.850726351351351E+000 0.000000000000000E+000
 0.250000000000000E+000 0.750000000000000E+000 0.000000000000000E+000
 0.000000000000000E+000 0.937500000000000E+000 0.000000000000000E+000
 0.250000000000000E+000 0.100000000000000E+001 0.000000000000000E+000
 0.125000000000000E+000 0.100000000000000E+001 0.000000000000000E+000
 0.559955578663221E-001 0.864626829113867E+000 0.000000000000000E+000
 0.201656717908302E+000 0.819893736067327E+000 0.000000000000000E+000
 0.181985294117647E-001 0.906250000000000E+000 0.000000000000000E+000
 0.157158578892515E+000 0.827852167423944E+000 0.000000000000000E+000
 0.173219498992632E+000 0.789273026175030E+000 0.000000000000000E+000
 0.190370748034901E+000 0.885171153579592E+000 0.000000000000000E+000
 0.163362285670037E+000 0.862539079232243E+000 0.000000000000000E+000
 0.145689809422689E+000 0.911060496538305E+000 0.000000000000000E+000
 0.260169562085505E+000 0.921822264266383E+000 0.000000000000000E+000
 0.999952720236157E-001 0.900131729869707E+000 0.000000000000000E+000
 0.181336648989602E+000 0.921080529637299E+000 0.000000000000000E+000
 0.187500000000000E+000 0.100000000000000E+001 0.000000000000000E+000
 0.625000000000000E-001 0.100000000000000E+001 0.000000000000000E+000
 0.391044682108720E-001 0.939348618511729E+000 0.000000000000000E+000
 0.987901813178879E-001 0.953497897705852E+000 0.000000000000000E+000
 0.127430470763290E+000 0.938015442955272E+000 0.000000000000000E+000
 0.735147503821561E-001 0.927156548383149E+000 0.000000000000000E+000
 0.187500000000000E+000 0.750000000000000E+000 0.000000000000000E+000
 0.937500000000000E-001 0.986976003387646E+000 0.000000000000000E+000
 0.647068558612996E-001 0.964310770745732E+000 0.000000000000000E+000
 0.287348941263244E-001 0.975594752089430E+000 0.000000000000000E+000
 0.140548246895551E+000 0.780148342865875E+000 0.000000000000000E+000
 0.625000000000000E-001 0.656250000000000E+000 0.000000000000000E+000
 0.885416666666667E-001 0.718750000000000E+000 0.000000000000000E+000
 0.125000000000000E+000 0.687500000000000E+000 0.000000000000000E+000
 0.418778153153153E-001 0.701096693284193E+000 0.000000000000000E+000
 0.130000591648319E-001 0.718750000000000E+000 0.000000000000000E+000
 0.886787280701754E-001 0.682017543859649E+000 0.000000000000000E+000
 0.324539302647226E+000 0.874753539998500E+000 0.000000000000000E+000
 0.220842706957930E+000 0.911928394103011E+000 0.000000000000000E+000
 0.255656705174793E+000 0.856653769033302E+000 0.000000000000000E+000
 0.230240640268531E+000 0.957679342037283E+000 0.000000000000000E+000
 0.247273788001812E+000 0.889974781313083E+000 0.000000000000000E+000
 0.287822583654814E+000 0.892090285129540E+000 0.000000000000000E+000
 0.375000000000000E+000 0.100000000000000E+001 0.000000000000000E+000
 0.312500000000000E+000 0.100000000000000E+001 0.000000000000000E+000
 0.296339471848887E+000 0.927737349884604E+000 0.000000000000000E+000
 0.272754945277513E+000 0.963602684427479E+000 0.000000000000000E+000
 0.218750000000000E+000 0.100000000000000E+001 0.000000000000000E+000
 0.156250000000000E+000 0.970185411869689E+000 0.000000000000000E+000
 0.193067439035452E+000 0.962879965079150E+000 0.000000000000000E+000
 0.366022419631980E+000 0.930828672570042E+000 0.000000000000000E+000
 0.331917636626289E+000 0.912676918057824E+000 0.000000000000000E+000
 0.218750000000000E+000 0.780050991479902E+000 0.000000000000000E+000
 0.270314960374965E+000 0.802399429390985E+000 0.000000000000000E+000
 0.239019213447470E+000 0.823051378525603E+000 0.000000000000000E+000
 0.312500000000000E+000 0.750000000000000E+000 0.000000000000000E+000
 0.297176692881550E+000 0.838764170920897E+000 0.000000000000000E+000
 0.316491084060399E+000 0.796393690767677E+000 0.000000000000000E+000
 0.343750000000000E+000 0.770680188507291E+000 0.000000000000000E+000
 0.409908719410776E+000 0.836702006091634E+000 0.000000000000000E+000
 0.362591033297072E+000 0.817958948082628E+000 0.000000000000000E+000
 0.401086171766563E+000 0.789875587437421E+000 0.000000000000000E+000
 0.371341896832358E+000 0.864966336467817E+000 0.000000000000000E+000
 0.333452116450771E+000 0.839580614538559E+000 0.000000000000000E+000
 0.625000000000000E+000 0.500000000000000E+000 0.000000000000000E+000
 0.497245004128187E+000 0.796002674320860E+000 0.000000000000000E+000
 0.375000000000000E+000 0.625000000000000E+000 0.000000000000000E+000
 0.448383797292392E+000 0.805208595628784E+000 0.000000000000000E+000
 0.410140101146819E+000 0.755482168792868E+000 0.000000000000000E+000
 0.466643384891561E+000 0.767852445997818E+000 0.000000000000000E+000
 0.476967665188550E+000 0.732032311892081E+000 0.000000000000000E+000
 0.540753556856103E+000 0.747012385328872E+000 0.000000000000000E+000
 0.490851671729155E+000 0.896339978179292E+000 0.000000000000000E+000
 0.457989751325779E+000 0.856193010026991E+000 0.000000000000000E+000
 0.477617377726983E+000 0.826097842173926E+000 0.000000000000000E+000
 0.546397010943533E+000 0.849506899903764E+000 0.000000000000000E+000
 0.514994092174850E+000 0.829026377565149E+000 0.000000000000000E+000
 0.557956128164421E+000 0.797467818442289E+000 0.000000000000000E+000
 0.513053884697208E+000 0.866316721845202E+000 0.000000000000000E+000
 0.531719458287368E+000 0.903340824708691E+000 0.000000000000000E+000
 0.750000000000000E+000 0.100000000000000E+001 0.000000000000000E+000
 0.503122841217304E+000 0.947490703764094E+000 0.000000000000000E+000
 0.428509525448068E+000 0.913846660476909E+000 0.000000000000000E+000
 0.625000000000000E+000 0.100000000000000E+001 0.000000000000000E+000
 0.410139362032626E+000 0.877461197108989E+000 0.000000000000000E+000
 0.393550593852374E+000 0.908666538512922E+000 0.000000000000000E+000
 0.455853425536278E+000 0.891464570133054E+000 0.000000000000000E+000
 0.465565809489837E+000 0.931223943045515E+000 0.000000000000000E+000
 0.430803944763131E+000 0.957152995135723E+000 0.000000000000000E+000
 0.361862549463301E+000 0.897277191535820E+000 0.000000000000000E+000
 0.281250000000000E+000 0.768022264880110E+000 0.000000000000000E+000
 0.528016132294562E+000 0.779515446907155E+000 0.000000000000000E+000
 0.582435077211395E+000 0.760961532636893E+000 0.000000000000000E+000
 0.594258447236559E+000 0.718750000000000E+000 0.000000000000000E+000
 0.513210480866922E+000 0.721000388231171E+000 0.000000000000000E+000
 0.625000000000000E+000 0.625000000000000E+000 0.000000000000000E+000
 0.293099715520438E+000 0.681007179427844E+000 0.000000000000000E+000
 0.625000000000000E+000 0.687500000000000E+000 0.000000000000000E+000
 0.375000000000000E+000 0.500000000000000E+000 0.000000000000000E+000
 0.588365877190365E+000 0.682207614843486E+000 0.000000000000000E+000
 0.544806337802789E+000 0.700097114505632E+000 0.000000000000000E+000
 0.473117607324743E+000 0.654334216996401E+000 0.000000000000000E+000
 0.507976816774602E+000 0.678758937084175E+000 0.000000000000000E+000
 0.471770128441152E+000 0.693345422145358E+000 0.000000000000000E+000
 0.540484989053884E+000 0.595274872726202E+000 0.000000000000000E+000
 0.434924684287812E+000 0.717988149163748E+000 0.000000000000000E+000
 0.438762107036035E+000 0.672676424045669E+000 0.000000000000000E+000
 0.514022824851611E+000 0.633041943182225E+000 0.000000000000000E+000
 0.375000000000000E+000 0.687500000000000E+000 0.000000000000000E+000
[...]
CELL_DATA         5036
SCALARS tdens double 1
LOOKUP_TABLE default
 0.831162285632985E-004
 0.227428878133895E-003
 0.112834309707141E-003
 0.113066166799214E-003
 0.507771206241620E-002
 0.340234027873643E-002
 0.367741831107025E-002
 0.368239914389288E-002
 0.877966418296630E-001
 0.101939045996288E+000
 0.101979936150581E+000
 0.101185802300154E+000
 0.111848611292599E-003
 0.648524499041345E-004
 0.957152756141924E-004
 0.919367484807262E-004
 0.206775162667644E-003
 0.167555154235421E-003
 0.125710655901945E-003
 0.156981105301465E-003
 0.143222625613005E-004
 0.130690542969973E-004
 0.702894762103191E-005
 0.107650331545846E-004
 0.491168280714516E-001
 0.444962298897634E-001
 0.772525112397022E-001
 0.473845532079517E-001
 0.787164465449999E-001
 0.879677040694603E-001
 0.758209591208998E-001
 0.784221558903125E-001
 0.137613956302285E+000
 0.148932416319500E+000
 0.154396855492039E+000
 0.151142726538860E+000
 0.566947735224830E-003
 0.511025268220362E-003
 0.438181023949381E-003
 0.517694529666146E-003
 0.190013869153392E-002
 0.252291795505349E-002
 0.253327713608179E-002
 0.247030608168129E-002
 0.777673147989669E-002
 0.108760146320354E-001
 0.940426917167936E-002
 0.917009647927271E-002
 0.370279264503199E-002
 0.183141014773345E-002
 0.649321344341290E-003
 0.147268470164725E-002
 0.148406488201401E+000
 0.967769432956048E-001
 0.116221537958877E+000
 0.106582196955864E+000
 0.342636093875412E-001
 0.238790232423420E-001
 0.264891165980246E-001
 0.260848440677923E-001
 0.120013217839090E+000
 0.112356814703831E+000
 0.154470512018364E+000
 0.116477768529586E+000
 0.258744214072781E-002
 0.336609669900116E-002
 0.238842251086151E-002
 0.257479069874547E-002
 0.265804863355123E-002
 0.130658184466000E-001
 0.610393520849513E-002
 0.728885578439906E-002
 0.831113224477450E-004
 0.770924795248936E-004
 0.783991555053366E-004
 0.780529090537248E-004
 0.885466586384663E-001
 0.884945770212922E-001
 0.808076430620700E-001
 0.885054854570851E-001
 0.115254846257991E-001
 0.151200916723371E-001
 0.880721835308998E-002
 0.117026828825572E-001
 0.305944102717085E-004
 0.287749399076016E-004
 0.303830588938364E-004
 0.298457521333759E-004
 0.127888968871739E+000
 0.125952842850164E+000
 0.124569938341194E+000
 0.126259737506568E+000
 0.394714119530903E-004
 0.317422951996825E-004
 0.324127521288816E-004
 0.341165338452899E-004
 0.102980713498180E+000
 0.941998528156145E-001
 0.895647818476406E-001
 0.925017509809268E-001
 0.832170956200911E-001
 0.857198330885519E-001
 0.697699240543859E-001
 0.822234873579362E-001
 0.758144720801885E-004
 0.228502397508628E-003
 0.136462433576227E-003
 0.131358284718777E-003
 0.146759756272116E-001
 0.684830177302688E-002
 0.129318655339465E-001
 0.129868185124022E-001
 0.484510816943144E-001
 0.245181526823806E-001
 0.469019754911682E-001
 0.456382520796688E-001
 0.263177825801861E-002
 0.182407718485346E-002
 0.201517410173402E-002
 0.202552412134713E-002
 0.942338976443533E-003
 0.690683904828530E-003
 0.122606445107496E-002
 0.911670230336190E-003
 0.968692129237344E-003
 0.167229855367867E-002
 0.346557267313302E-002
 0.144987938963466E-002
 0.133420995032788E-003
 0.512600525289973E-004
 0.175359030004010E-004
 0.382953023513803E-004
 0.343518726960565E-002
 0.976476012468497E-002
 0.144637156096881E-001
 0.114465755669357E-001
 0.869879618951405E-004
 0.745323498486448E-004
 0.574410475539534E-004
 0.747656235449316E-004
 0.274805088886184E-004
 0.293445449107590E-004
 0.280341058359637E-004
 0.283560565173636E-004
 0.147283015845084E-003
 0.107078640953004E-003
 0.991280893062027E-004
 0.115201944493948E-003
 0.329924603487158E-004
 0.288424820187424E-004
 0.311625979377866E-004
 0.309536791037951E-004
 0.193738051626494E-004
 0.416863140419211E-004
 0.548460605577060E-004
 0.231233964783800E-004
 0.275949642277431E-004
 0.325240470597690E-004
 0.306556397379619E-004
 0.294465466121975E-004
 0.445432376081677E-004
 0.334340754242899E-004
 0.389282967195549E-004
 0.385431288275829E-004
 0.325995004850681E-001
 0.421053323316151E-001
 0.505453396878930E-001
 0.486907922320152E-001
 0.286503127290981E-004
 0.324581669903288E-004
 0.298194546003239E-004
 0.301143111591761E-004
 0.323103761321778E-004
 0.418054394819435E-004
 0.363528805579328E-004
 0.357298183233256E-004
 0.273444762663642E-004
 0.271317577549348E-004
 0.269326782993068E-004
 0.270154418460758E-004
 0.267459764098078E-004
 0.379719774174654E-004
 0.402298150397915E-004
 0.351814822136264E-004
 0.126047812613553E-001
 0.147091921205732E-001
 0.148791214773785E-001
 0.145067742709841E-001
 0.591579681441355E-004
 0.922241793734884E-004
 0.517008729470698E-004
 0.638078574566504E-004
 0.293636375112167E-003
 0.243969225597935E-002
 0.979338928803274E-002
 0.542100073475091E-002
 0.284232866327366E-004
 0.414426970754428E-004
 0.374473680468794E-004
 0.352960727088263E-004
 0.651128687866411E-004
 0.556955971687585E-004
 0.157494985969844E-003
 0.738057333163473E-004
 0.370029741808630E-003
 0.197507644778278E-003
 0.187032520198277E-003
 0.217429269675651E-003
 0.874878556771396E-003
 0.215548879920447E-003
 0.101409284478356E-002
 0.747005327457273E-003
 0.294162037436566E-004
 0.352818472540437E-004
 0.404527026474457E-004
 0.340576508351328E-004
 0.494990207315702E-004
 0.489546759439371E-004
 0.398382979812679E-004
 0.463060529051439E-004
 0.675379996379808E-004
 0.108015016958697E-003
 0.115040214029397E-003
 0.977762087928739E-004
 0.245283212217714E-004
 0.258144220927340E-004
 0.323678281264663E-004
 0.274278058041558E-004
 0.468536313695873E-001
 0.325815661242064E-001
 0.591742219436639E-001
 0.379162406638527E-001
 0.799351424569390E-002
 0.940454767435152E-002
 0.174019595590310E-001
 0.901236303926607E-002
 0.612086098558439E-004
 0.922214854683370E-004
 0.600515417171421E-004
 0.683842687174440E-004
 0.636944150867520E-002
 0.545129125880147E-002
 0.953560705207879E-002
 0.637056126978304E-002
 0.194395290652052E-003
 0.188429662440374E-003
 0.573724296798108E-003
 0.238355210059451E-003
 0.103058403015142E-001
 0.209956253398653E-001
 0.205428488138782E-002
 0.127595943274615E-001
 0.664334673311709E-004
 0.586999098302076E-004
 0.980553780077017E-004
 0.709892033711982E-004
 0.168934388751259E-004
 0.239384930213987E-004
 0.214353095501283E-004
 0.206378448277486E-004
 0.565314066991259E-004
 0.855812396612941E-004
 0.153488311549670E-003
 0.100680066650319E-003
 0.396346718139120E-001
 0.236159019699633E-001
 0.129607597555808E-001
 0.247093576357161E-001
 0.805980713221530E-001
 0.986283671208571E-001
 0.973799362391949E-001
 0.888315784165639E-001
 0.143556008251414E-001
 0.267116402977049E-001
 0.453619024105194E-001
 0.365664912294513E-001
 0.503755765644788E-001
 0.675562025678605E-001
 0.780314880943189E-001
 0.638660467598051E-001
 0.591353838236368E-002
 0.144103060774499E-001
 0.106405074084441E-001
 0.116398042447334E-001
 0.415969020473693E-001
 0.137886462413485E-001
 0.263900231617934E-001
 0.249251700147592E-001
 0.100161949980282E-002
 0.317924305572549E-002
 0.318880609716551E-002
 0.283139604493368E-002
 0.139320649763547E-002
 0.952140208479501E-003
 0.292781247750612E-002
 0.144316711275672E-002
 0.785250261608401E-004
 0.130204707992591E-003
 0.131567125847502E-003
 0.116384922109963E-003
 0.165469439741105E-002
 0.315856531449916E-002
 0.379543946028067E-002
 0.309305219461170E-002
 0.108796908634260E-003
 0.622818610939173E-004
 0.665311030737271E-004
 0.744752370262551E-004
 0.610980550242108E-003
 0.469153144115770E-003
 0.221645749357466E-003
 0.448607353358961E-003
 0.697894876673187E-003
 0.250530976343782E-003
 0.490382443059171E-003
 0.497343123216000E-003
 0.161052418337293E-002
 0.330999106550049E-002
 0.292698505868680E-002
 0.302445875199967E-002
 0.752574261274937E-002
 0.125298763437798E-001
 0.834216886649060E-002
 0.843285015166123E-002
 0.471547872443477E-004
 0.365101886679154E-004
 0.493964698448227E-004
 0.450035230908529E-004
 0.777589605088875E-003
 0.219645386107328E-002
 0.121596393151102E-002
 0.122233023252387E-002
 0.126335000373808E-004
 0.165010498697180E-004
 0.112169299689817E-004
 0.133823833161625E-004
 0.202302559944847E-004
 0.189369339915109E-004
 0.152340290707779E-004
 0.175868320703685E-004
 0.333635968519334E-004
 0.238908801933571E-004
 0.240718533323189E-004
 0.265940293585378E-004
 0.447522411766495E-004
 0.325510681968168E-004
 0.288223682753103E-004
 0.343184067189140E-004
 0.777754146330477E-003
 0.402635733986712E-003
 0.488548074737220E-003
 0.524678275730601E-003
 0.100763608036413E-004
 0.858004486175650E-005
 0.516034458017837E-005
 0.739394203364160E-005
 0.122283334157243E-003
 0.130839844833157E-003
 0.782036480018951E-004
 0.110530776127999E-003
 0.910652015333775E-004
 0.555220251658779E-004
 0.512154472020639E-004
 0.604913459833016E-004
 0.308584724401294E-004
 0.439913791876674E-004
 0.477149553351370E-004
 0.411157132022766E-004
 0.771995307142525E-001
 0.527578045194975E-001
 0.642514999788088E-001
 0.720142231475240E-001
 0.132017591148381E-001
 0.219436861377824E-001
 0.379814404803436E-002
 0.158608693756690E-001
 0.417735291030995E-004
 0.218835705912495E-004
 0.309795452973279E-004
 0.300928094548120E-004
 0.226221010394656E-004
 0.265519101834546E-004
 0.182685676965414E-004
 0.215776282107695E-004
 0.878522112861784E-005
 0.109841154831372E-004
 0.526289974278821E-005
 0.775102458245852E-005
 0.376174135303016E-004
 0.264870969546787E-004
 0.244416571363670E-004
 0.284823917285657E-004
 0.188221877412807E-004
 0.200530820756907E-004
 0.129293993341180E-004
 0.170372586724066E-004
 0.143851725914338E-004
 0.117377096407946E-004
 0.186411472778722E-004
 0.147123780313074E-004
 0.463453112422213E-001
 0.214491262760271E-001
 0.133039411912765E-001
 0.284320618334814E-001
 0.303134034695549E-001
 0.227251099420572E-001
 0.373673302239183E-001
 0.283529323106958E-001
 0.375679589772063E-004
 0.243868928021960E-004
 0.458324029966399E-004
 0.361870840400855E-004
 0.106004405690668E-003
 0.168652779544752E-003
 0.240723833772637E-003
 0.173000524741959E-003
 0.191939172995953E-004
 0.103630777623087E-004
 0.133016831443673E-004
 0.143462530391061E-004
 0.138967322961327E-004
 0.206251552208786E-004
 0.207306694070172E-004
 0.174812465782742E-004
 0.180638662550580E-004
 0.242436808245925E-004
 0.218499915702790E-004
 0.212898172825777E-004
 0.253967803269042E-004
 0.208273132726849E-004
 0.303356317191934E-004
 0.249096281971473E-004
 0.268248020410447E-004
 0.268438727350102E-004
 0.275657353347866E-004
 0.271143497790597E-004
 0.251164930798745E-004
 0.275112883876399E-004
 0.277645110437284E-004
 0.267477643676993E-004
 0.270270813447317E-004
 0.250963306625631E-004
 0.264628613294030E-004
 0.263811830308654E-004
 0.257204337908233E-004
 0.261856942895721E-004
 0.243289771849485E-004
 0.254728982521725E-004
 0.233514587467508E-004
 0.125456599848194E-004
 0.825436382932559E-005
 0.916423085417784E-005
 0.175546952402050E-004
 0.249296243073627E-004
 0.477364800231333E-004
 0.273061607873349E-004
 0.555289452689918E-001
 0.474713815629403E-001
 0.393776307817160E-001
 0.480888464769243E-001
 0.465155786862298E-002
 0.547820318454179E-002
 0.276255816206899E-002
 0.461044814091548E-002
 0.101212089556138E-001
 0.539540194350283E-002
 0.497384022885979E-002
 0.554656178908317E-002
 0.909258669447780E-001
 0.845842161311792E-001
 0.771523252338603E-001
 0.889723935295107E-001
 0.147537108767005E-001
 0.261321867980249E-001
 0.183270311235891E-001
 0.186541667476017E-001
 0.233115710954374E-003
 0.345688709466095E-003
 0.320817150377301E-003
 0.284762073638036E-003
 0.200536992828025E-003
 0.193474340904034E-003
 0.320737328581226E-003
 0.218897682273143E-003
 0.157941975892778E-001
 0.613813247790202E-002
 0.719056310681466E-002
 0.692362171992498E-002
 0.361772703281374E-001
 0.477918012277849E-001
 0.263890397357048E-001
 0.341004292842056E-001
 0.280818785783987E-002
 0.546777473898270E-002
 0.374001243891510E-002
 0.363588038928138E-002
 0.765915225789019E-002
 0.107362839311366E-001
 0.125480487960448E-001
 0.106744689138897E-001
 0.124935109429417E-001
 0.863358480979661E-002
 0.133093788909052E-001
 0.127636194865327E-001
 0.443542222894180E-002
 0.558384916557644E-002
 0.393723050776302E-002
 0.457210674543667E-002
 0.143377342671031E-002
 0.869532650563426E-003
 0.145171364871320E-002
 0.122184703635172E-002
 0.188026111549348E-001
 0.209188122561142E-001
 0.289407655045407E-001
 0.202086538063067E-001
 0.749818362188223E-003
 0.104472280350121E-002
 0.137117828261406E-002
 0.107402577681352E-002
 0.640558443602389E-003
 0.230215205962931E-003
 0.231604243398873E-003
 0.272157320663384E-003
 0.223498002551564E-002
 0.167983434139313E-002
 0.375358194900729E-002
 0.221030981312084E-002
 0.147662804721333E-003
 0.775181542876422E-004
 0.127028272093248E-003
 0.112432449976861E-003
 0.800932663437011E-003
 0.602800299608625E-003
 0.452017145994686E-003
 0.553743276687293E-003
 0.261489930351803E-003
 0.683442108160303E-003
 0.447173545951116E-003
 0.433046334210821E-003
 0.224391390979345E-002
 0.766802769511780E-003
 0.126987916576679E-002
 0.124120885166636E-002
 0.896340938407683E-001
 0.875882152959048E-001
 0.905745928203934E-001
 0.892938081601844E-001
 0.191068380425262E-001
 0.198394043696823E-001
 0.127583125581509E-001
 0.186912035111991E-001
 0.301825329202605E-001
 0.346186410266767E-001
 0.412218083282678E-001
 0.343446062043473E-001
 0.582321797988845E-002
 0.106286203963695E-001
 0.101649619225475E-001
 0.993907157511809E-002
 0.991715499730369E-001
 0.979251200706457E-001
 0.946801744924606E-001
 0.970827126133235E-001
 0.600364974384265E-001
 0.812179780143607E-001
 0.678855030153940E-001
 0.632336552353839E-001
 0.698452594269551E-001
 0.846284842115214E-001
 0.793821988441653E-001
 0.815735161286018E-001
 0.252173173498744E-001
 0.454595757539596E-001
 0.339641286602061E-001
 0.354187617558239E-001
 0.315018845442097E-001
 0.560480003614735E-001
 0.380551729939121E-001
 0.385424243227666E-001
 0.862230888970004E-001
 0.811654171753483E-001
 0.711922248376266E-001
 0.805723136804880E-001
 0.928845493771347E-001
 0.966845506106134E-001
 0.953368891799643E-001
 0.967216960054508E-001
 0.119653570635890E+000
 0.105678483136686E+000
 0.115211507624365E+000
 0.116227342217040E+000
 0.475007549933837E-001
 0.753824753416030E-001
 0.600591111222641E-001
 0.624112877631556E-001
 0.921168295170793E-001
 0.945301179001258E-001
 0.919294106492643E-001
 0.924603146489539E-001
 0.875742285167391E-001
 0.888873633728738E-001
 0.915645815957594E-001
 0.892197403483263E-001
 0.846931219426510E-001
 0.768943527704222E-001
 0.862812159068054E-001
 0.846937925676634E-001
 0.807492897528820E-001
 0.760923702989927E-001
 0.848563999009958E-001
 0.793304953543502E-001
 0.864554258353622E-001
 0.893027925938281E-001
 0.887372569359607E-001
 0.891745636754468E-001
 0.814629511958525E-001
 0.845171842075613E-001
 0.886458360988915E-001
 0.836795383841112E-001
 0.540637138003640E-001
 0.675001289978775E-001
 0.516999796011193E-001
 0.537831596096691E-001
 0.567314701952076E-001
 0.738233869530179E-001
 0.700508777198773E-001
 0.707539182029037E-001
 0.529711354630993E-001
 0.562406847762971E-001
 0.397667763968932E-001
 0.528801759155091E-001
 0.766793348143849E-001
 0.862697225228872E-001
 0.765896216217961E-001
 0.772226976465082E-001
 0.897679885838293E-001
 0.803390994613547E-001
 0.850316832408630E-001
 0.828592610493592E-001
 0.463111898943835E-001
 0.484661894129936E-001
 0.601467463126531E-001
 0.486006754667283E-001
 0.197373037588675E-001
 0.143874719287336E-001
 0.211925945174685E-001
 0.202892160606759E-001
 0.849065567237205E-001
 0.700333487219169E-001
 0.690826168134381E-001
 0.711113516872567E-001
 0.579744766924351E-001
 0.655332100130605E-001
 0.750565583960551E-001
 0.636637724155748E-001
 0.250661553403221E+000
 0.212636378315545E+000
 0.233289698185871E+000
 0.235152893993493E+000
 0.189795267426542E+000
 0.165377625560115E+000
 0.184665657557159E+000
 0.185135242484517E+000
 0.104024603447095E+000
 0.118737938513262E+000
 0.106796052304723E+000
 0.107995917774440E+000
 0.732709104382278E-001
 0.733805331157317E-001
 0.843069091688033E-001
 0.738947730698963E-001
 0.151593873412842E+000
 0.175348211509001E+000
 0.163860607908453E+000
 0.168827181519761E+000
 0.990669388207863E-001
 0.876074941760609E-001
 0.939878823180148E-001
 0.953326321223266E-001
 0.887686997838357E-001
 0.870436406329667E-001
 0.785271308061132E-001
 0.878912396310034E-001
 0.877596786712768E-001
 0.855968788343373E-001
 0.755326069560869E-001
 0.855539951007924E-001
 0.132841403834366E+000
 0.127904407524305E+000
 0.127021664821111E+000
 0.127725295043535E+000
 0.910482232720950E-001
 0.109182121322183E+000
 0.876954388777794E-001
 0.918797085988020E-001
 0.723544988293196E-001
 0.770756167537300E-001
 0.804416993854335E-001
 0.764772730112211E-001
 0.922907720566678E-001
 0.906839411079128E-001
 0.875266849131138E-001
 0.907173202224489E-001
 0.162835246127799E+000
 0.195001155371893E+000
 0.150852989968515E+000
 0.176394921587722E+000
 0.604781448030842E-001
 0.681091470989319E-001
 0.591529807247033E-001
 0.635834059427818E-001
 0.123238715524904E-001
 0.138660843779258E-001
 0.103180214850753E-001
 0.121338877481506E-001
 0.980708719334893E-001
 0.108971423225758E+000
 0.985468498277617E-001
 0.993704732446811E-001
 0.969941528459533E-001
 0.100582426948096E+000
 0.968708530245309E-001
 0.998556590694688E-001
 0.402560008349646E-001
 0.386492293553217E-001
 0.284093431304376E-001
 0.387053456288461E-001
 0.911980310185219E-001
 0.913654090579148E-001
 0.946219943229224E-001
 0.920197341354154E-001
 0.470496358520488E-001
 0.461789192861333E-001
 0.600377921710727E-001
 0.476556169070596E-001
 0.955004596146615E-001
 0.922214175479238E-001
 0.961930473265757E-001
 0.936283265768871E-001
 0.861232269920593E-001
 0.890128259853550E-001
 0.748870034494795E-001
 0.865462983352157E-001
 0.774233246141338E-001
 0.647470279875760E-001
 0.540044289314030E-001
 0.638463082143398E-001
 0.113332883593061E+000
 0.117694514769575E+000
 0.130044594666518E+000
 0.122457553731286E+000
 0.985182086127225E-001
 0.103426830545328E+000
 0.108102824110360E+000
 0.105757360584823E+000
 0.745922296850633E-001
 0.896224389025781E-001
 0.856035607063310E-001
 0.854638081023140E-001
 0.126339494494353E+000
 0.136633192924163E+000
 0.119074490249576E+000
 0.130219845310132E+000
 0.123202573178934E+000
 0.141241034440306E+000
 0.136904798278821E+000
 0.131738218085031E+000
 0.303009516577293E-001
 0.397202453176812E-001
 0.713089075134768E-001
 0.438114010379813E-001
 0.612979428403796E-001
 0.621677225556954E-001
 0.486194052402575E-001
 0.607964535463285E-001
 0.242581632242943E+000
 0.202136351257767E+000
 0.211110869111294E+000
 0.218261638707348E+000
 0.100465734757299E+000
 0.112119574727110E+000
 0.107377365053674E+000
 0.104797551428866E+000
 0.662969081700219E-002
 0.714752577393595E-002
 0.874836367618568E-002
 0.726266727766287E-002
 0.757774623971238E-001
 0.532872954861503E-001
 0.666123109229428E-001
 0.673922621167876E-001
 0.211143176432076E-001
 0.327728214497868E-001
 0.293428626784663E-001
 0.284342023390211E-001
 0.329612593792302E-001
 0.211730509735777E-001
 0.334853537960635E-001
 0.322033677947704E-001
 0.480984593095770E-001
 0.622810980857949E-001
 0.491807165644712E-001
 0.487101564533954E-001
 0.892199721445677E-002
 0.890185639783881E-002
 0.701948141974137E-002
 0.848297646176928E-002
 0.239236394266255E-001
 0.344943053204048E-001
 0.344902720632218E-001
 0.339283420211591E-001
 0.629351803978853E-001
 0.515330355869267E-001
 0.671276192250292E-001
 0.633192428100882E-001
 0.278758027158713E-001
 0.376467768837262E-001
 0.280121470533472E-001
 0.284900128275644E-001
 0.162933669297680E-001
 0.112090957088557E-001
 0.118648375291623E-001
 0.119955783735490E-001
 0.146756712266293E-001
 0.167971589865925E-001
 0.215832760218097E-001
 0.162123946540763E-001
 0.226148112338327E-001
 0.330319427094497E-001