# vtk DataFile Version 3.0
Unstructured Grid
ASCII
DATASET UNSTRUCTURED_GRID
FIELD FieldData 1
TIME 1 1 float
  0.155625E+02
POINTS         2588 double
 0.000000000000000E+000 0.000000000000000E+000 0.000000000000000E+000
 0.100000000000000E+001 0.000000000000000E+000 0.000000000000000E+000
 0.100000000000000E+001 0.100000000000000E+001 0.000000000000000E+000
 0.000000000000000E+000 0.100000000000000E+001 0.000000000000000E+000
 0.125000000000000E+000 0.250000000000000E+000 0.000000000000000E+000
 0.375000000000000E+000 0.250000000000000E+000 0.000000000000000E+000
 0.375000000000000E+000 0.750000000000000E+000 0.000000000000000E+000
 0.125000000000000E+000 0.750000000000000E+000 0.000000000000000E+000
 0.625000000000000E+000 0.250000000000000E+000 0.000000000000000E+000
 0.875000000000000E+000 0.250000000000000E+000 0.000000000000000E+000
 0.875000000000000E+000 0.750000000000000E+000 0.000000000000000E+000
 0.625000000000000E+000 0.750000000000000E+000 0.000000000000000E+000
 0.100000000000000E+001 0.500000000000000E+000 0.000000000000000E+000
 0.000000000000000E+000 0.500000000000000E+000 0.000000000000000E+000
 0.500000000000000E+000 0.000000000000000E+000 0.000000000000000E+000
 0.125000000000000E+000 0.500000000000000E+000 0.000000000000000E+000
 0.000000000000000E+000 0.750000000000000E+000 0.000000000000000E+000
 0.000000000000000E+000 0.250000000000000E+000 0.000000000000000E+000
 0.000000000000000E+000 0.875000000000000E+000 0.000000000000000E+000
 0.000000000000000E+000 0.125000000000000E+000 0.000000000000000E+000
 0.000000000000000E+000 0.812500000000000E+000 0.000000000000000E+000
 0.625000000000000E-001 0.812500000000000E+000 0.000000000000000E+000
 0.125000000000000E+000 0.375000000000000E+000 0.000000000000000E+000
 0.000000000000000E+000 0.375000000000000E+000 0.000000000000000E+000
 0.125000000000000E+000 0.625000000000000E+000 0.000000000000000E+000
 0.312500000000000E-001 0.781250000000000E+000 0.000000000000000E+000
 0.000000000000000E+000 0.625000000000000E+000 0.000000000000000E+000
 0.781250000000000E-001 0.765625000000000E+000 0.000000000000000E+000
 0.364583333333333E-001 0.744791666666667E+000 0.000000000000000E+000
 0.000000000000000E+000 0.687500000000000E+000 0.000000000000000E+000
 0.312500000000000E-001 0.843750000000000E+000 0.000000000000000E+000
 0.500000000000000E+000 0.100000000000000E+001 0.000000000000000E+000
 0.117915518486872E+000 0.805415518486872E+000 0.000000000000000E+000
 0.531250000000000E-001 0.896875000000000E+000 0.000000000000000E+000
 0.128125000000000E+000 0.862500000000000E+000 0.000000000000000E+000
 0.852352799227800E-001 0.850726351351351E+000 0.000000000000000E+000
 0.250000000000000E+000 0.750000000000000E+000 0.000000000000000E+000
 0.000000000000000E+000 0.937500000000000E+000 0.000000000000000E+000
 0.250000000000000E+000 0.100000000000000E+001 0.000000000000000E+000
 0.125000000000000E+000 0.100000000000000E+001 0.000000000000000E+000
 0.559955578663221E-001 0.864626829113867E+000 0.000000000000000E+000
 0.201656717908302E+000 0.819893736067327E+000 0.000000000000000E+000
 0.181985294117647E-001 0.906250000000000E+000 0.000000000000000E+000
 0.157158578892515E+000 0.827852167423944E+000 0.000000000000000E+000
 0.173219498992632E+000 0.789273026175030E+000 0.000000000000000E+000
 0.190370748034901E+000 0.885171153579592E+000 0.000000000000000E+000
 0.163362285670037E+000 0.862539079232243E+000 0.000000000000000E+000
 0.145689809422689E+000 0.911060496538305E+000 0.000000000000000E+000
 0.260169562085505E+000 0.921822264266383E+000 0.000000000000000E+000
 0.999952720236157E-001 0.900131729869707E+000 0.000000000000000E+000
 0.181336648989602E+000 0.921080529637299E+000 0.000000000000000E+000
 0.187500000000000E+000 0.100000000000000E+001 0.000000000000000E+000
 0.625000000000000E-001 0.100000000000000E+001 0.000000000000000E+000
 0.391044682108720E-001 0.939348618511729E+000 0.000000000000000E+000
 0.987901813178879E-001 0.953497897705852E+000 0.000000000000000E+000
 0.127430470763290E+000 0.938015442955272E+000 0.000000000000000E+000
 0.735147503821561E-001 0.927156548383149E+000 0.000000000000000E+000
 0.187500000000000E+000 0.750000000000000E+000 0.000000000000000E+000
 0.937500000000000E-001 0.986976003387646E+000 0.000000000000000E+000
 0.647068558612996E-001 0.964310770745732E+000 0.000000000000000E+000
 0.287348941263244E-001 0.975594752089430E+000 0.000000000000000E+000
 0.140548246895551E+000 0.780148342865875E+000 0.000000000000000E+000
 0.625000000000000E-001 0.656250000000000E+000 0.000000000000000E+000
 0.885416666666667E-001 0.718750000000000E+000 0.000000000000000E+000
 0.125000000000000E+000 0.687500000000000E+000 0.000000000000000E+000
 0.418778153153153E-001 0.701096693284193E+000 0.000000000000000E+000
 0.130000591648319E-001 0.718750000000000E+000 0.000000000000000E+000
 0.886787280701754E-001 0.682017543859649E+000 0.000000000000000E+000
 0.324539302647226E+000 0.874753539998500E+000 0.000000000000000E+000
 0.220842706957930E+000 0.911928394103011E+000 0.000000000000000E+000
 0.255656705174793E+000 0.856653769033302E+000 0.000000000000000E+000
 0.230240640268531E+000 0.957679342037283E+000 0.000000000000000E+000
 0.247273788001812E+000 0.889974781313083E+000 0.000000000000000E+000
 0.287822583654814E+000 0.892090285129540E+000 0.000000000000000E+000
 0.375000000000000E+000 0.100000000000000E+001 0.000000000000000E+000
 0.312500000000000E+000 0.100000000000000E+001 0.000000000000000E+000
 0.296339471848887E+000 0.927737349884604E+000 0.000000000000000E+000
 0.272754945277513E+000 0.963602684427479E+000 0.000000000000000E+000
 0.218750000000000E+000 0.100000000000000E+001 0.000000000000000E+000
 0.156250000000000E+000 0.970185411869689E+000 0.000000000000000E+000
 0.193067439035452E+000 0.962879965079150E+000 0.000000000000000E+000
 0.366022419631980E+000 0.930828672570042E+000 0.000000000000000E+000
 0.331917636626289E+000 0.912676918057824E+000 0.000000000000000E+000
 0.218750000000000E+000 0.780050991479902E+000 0.000000000000000E+000
 0.270314960374965E+000 0.802399429390985E+000 0.000000000000000E+000
 0.239019213447470E+000 0.823051378525603E+000 0.000000000000000E+000
 0.312500000000000E+000 0.750000000000000E+000 0.000000000000000E+000
 0.297176692881550E+000 0.838764170920897E+000 0.000000000000000E+000
 0.316491084060399E+000 0.796393690767677E+000 0.000000000000000E+000
 0.343750000000000E+000 0.770680188507291E+000 0.000000000000000E+000
 0.409908719410776E+000 0.836702006091634E+000 0.000000000000000E+000
 0.362591033297072E+000 0.817958948082628E+000 0.000000000000000E+000
 0.401086171766563E+000 0.789875587437421E+000 0.000000000000000E+000
 0.371341896832358E+000 0.864966336467817E+000 0.000000000000000E+000
 0.333452116450771E+000 0.839580614538559E+000 0.000000000000000E+000
 0.625000000000000E+000 0.500000000000000E+000 0.000000000000000E+000
 0.497245004128187E+000 0.796002674320860E+000 0.000000000000000E+000
 0.375000000000000E+000 0.625000000000000E+000 0.000000000000000E+000
 0.448383797292392E+000 0.805208595628784E+000 0.000000000000000E+000
 0.410140101146819E+000 0.755482168792868E+000 0.000000000000000E+000
 0.466643384891561E+000 0.767852445997818E+000 0.000000000000000E+000
 0.476967665188550E+000 0.732032311892081E+000 0.000000000000000E+000
 0.540753556856103E+000 0.747012385328872E+000 0.000000000000000E+000
 0.490851671729155E+000 0.896339978179292E+000 0.000000000000000E+000
 0.457989751325779E+000 0.856193010026991E+000 0.000000000000000E+000
 0.477617377726983E+000 0.826097842173926E+000 0.000000000000000E+000
 0.546397010943533E+000 0.849506899903764E+000 0.000000000000000E+000
 0.514994092174850E+000 0.829026377565149E+000 0.000000000000000E+000
 0.557956128164421E+000 0.797467818442289E+000 0.000000000000000E+000
 0.513053884697208E+000 0.866316721845202E+000 0.000000000000000E+000
 0.531719458287368E+000 0.903340824708691E+000 0.000000000000000E+000
 0.750000000000000E+000 0.100000000000000E+001 0.000000000000000E+000
 0.503122841217304E+000 0.947490703764094E+000 0.000000000000000E+000
 0.428509525448068E+000 0.913846660476909E+000 0.000000000000000E+000
 0.625000000000000E+000 0.100000000000000E+001 0.000000000000000E+000
 0.410139362032626E+000 0.877461197108989E+000 0.000000000000000E+000
 0.393550593852374E+000 0.908666538512922E+000 0.000000000000000E+000
 0.455853425536278E+000 0.891464570133054E+000 0.000000000000000E+000
 0.465565809489837E+000 0.931223943045515E+000 0.000000000000000E+000
 0.430803944763131E+000 0.957152995135723E+000 0.000000000000000E+000
 0.361862549463301E+000 0.897277191535820E+000 0.000000000000000E+000
 0.281250000000000E+000 0.768022264880110E+000 0.000000000000000E+000
 0.528016132294562E+000 0.779515446907155E+000 0.000000000000000E+000
 0.582435077211395E+000 0.760961532636893E+000 0.000000000000000E+000
 0.594258447236559E+000 0.718750000000000E+000 0.000000000000000E+000
 0.513210480866922E+000 0.721000388231171E+000 0.000000000000000E+000
 0.625000000000000E+000 0.625000000000000E+000 0.000000000000000E+000
 0.293099715520438E+000 0.681007179427844E+000 0.000000000000000E+000
 0.625000000000000E+000 0.687500000000000E+000 0.000000000000000E+000
 0.375000000000000E+000 0.500000000000000E+000 0.000000000000000E+000
 0.588365877190365E+000 0.682207614843486E+000 0.000000000000000E+000
 0.544806337802789E+000 0.700097114505632E+000 0.000000000000000E+000
 0.473117607324743E+000 0.654334216996401E+000 0.000000000000000E+000
 0.507976816774602E+000 0.678758937084175E+000 0.000000000000000E+000
 0.471770128441152E+000 0.693345422145358E+000 0.000000000000000E+000
 0.540484989053884E+000 0.595274872726202E+000 0.000000000000000E+000
 0.434924684287812E+000 0.717988149163748E+000 0.000000000000000E+000
 0.438762107036035E+000 0.672676424045669E+000 0.000000000000000E+000
 0.514022824851611E+000 0.633041943182225E+000 0.000000000000000E+000
 0.375000000000000E+000 0.687500000000000E+000 0.000000000000000E+000
[...]
CELL_DATA         5036
SCALARS tdens double 1
LOOKUP_TABLE default
 0.344677773983778E-002
 0.499821452720555E-002
 0.399514821493522E-002
 0.407289156779002E-002
 0.226268087205528E-001
 0.197468502400320E-001
 0.204447850928406E-001
 0.207325173684294E-001
 0.821554751877683E-001
 0.903381435950158E-001
 0.905633436866855E-001
 0.894879782893683E-001
 0.753131659273825E-002
 0.636415704193475E-002
 0.711898646190412E-002
 0.694744044736720E-002
 0.948903065409104E-002
 0.854280994910282E-002
 0.779915850963809E-002
 0.852983463950885E-002
 0.183417039961262E-002
 0.170952940123533E-002
 0.155872785709695E-002
 0.161334557745650E-002
 0.893449120844584E-001
 0.840216845009806E-001
 0.106523233183745E+000
 0.889431421702284E-001
 0.745357211630699E-001
 0.803926188323039E-001
 0.751487459022891E-001
 0.758416802823100E-001
 0.125590751456457E+000
 0.128851050830142E+000
 0.134759703519609E+000
 0.130828614102154E+000
 0.116675839613908E-001
 0.110119316764418E-001
 0.104786943065112E-001
 0.110519816086118E-001
 0.164730096837101E-001
 0.180764563424594E-001
 0.181239238047583E-001
 0.176624440383073E-001
 0.258126562100111E-001
 0.288541848291670E-001
 0.273572092977610E-001
 0.271501616229185E-001
 0.192824224866281E-001
 0.122659158046576E-001
 0.987947131736810E-002
 0.129288854306329E-001
 0.143142282196415E+000
 0.107155643082880E+000
 0.125286419952089E+000
 0.119223032087045E+000
 0.584939153596990E-001
 0.535614732670829E-001
 0.536114970203781E-001
 0.547328470345715E-001
 0.139896735974220E+000
 0.128901735403586E+000
 0.157657086843902E+000
 0.137312011839841E+000
 0.366246810471893E-001
 0.398315624440551E-001
 0.361812649119752E-001
 0.370644896999750E-001
 0.162935627562426E-001
 0.268874679655059E-001
 0.213937882811654E-001
 0.220034240020107E-001
 0.597684186939070E-002
 0.577720600937968E-002
 0.556352583464796E-002
 0.570360509567575E-002
 0.785102822254873E-001
 0.803929206151063E-001
 0.750474830791679E-001
 0.788376568556820E-001
 0.292301906307082E-001
 0.320953405609397E-001
 0.268572921010337E-001
 0.299570642147182E-001
 0.530721921509302E-002
 0.530072808290561E-002
 0.537167076166826E-002
 0.533311425414530E-002
 0.104416359217799E+000
 0.103476934412799E+000
 0.102383506617268E+000
 0.103655215923657E+000
 0.574951739741656E-002
 0.534777685462214E-002
 0.548002966284836E-002
 0.547839674545944E-002
 0.567309706580325E-001
 0.529571745412820E-001
 0.490494567763883E-001
 0.520365383173973E-001
 0.748325505340730E-001
 0.744909716643180E-001
 0.690363311084490E-001
 0.731670751621676E-001
 0.684336178238636E-002
 0.944682933166370E-002
 0.768605519007694E-002
 0.780173131935395E-002
 0.433308579557622E-001
 0.329146415090940E-001
 0.386772395839922E-001
 0.388554405259761E-001
 0.713422906390029E-001
 0.559732883495905E-001
 0.689393349784225E-001
 0.673973941632707E-001
 0.180540136412338E-001
 0.161785409503773E-001
 0.165950388147229E-001
 0.169270707162629E-001
 0.118743941505666E-001
 0.107881005553242E-001
 0.135334025827465E-001
 0.119634595070177E-001
 0.120286103700330E-001
 0.137345003442230E-001
 0.177657850694062E-001
 0.140798765406411E-001
 0.698307145237321E-002
 0.381122573401487E-002
 0.380458882621408E-002
 0.470838527343681E-002
 0.166392849862564E-001
 0.190578439093256E-001
 0.289093567854735E-001
 0.226148069743529E-001
 0.640358507906972E-002
 0.509632580003761E-002
 0.470707394274334E-002
 0.540287277550476E-002
 0.529176161189587E-002
 0.537103894011158E-002
 0.527853686601960E-002
 0.531608540049269E-002
 0.572999340079417E-002
 0.529686268922586E-002
 0.497658894518211E-002
 0.532725593528052E-002
 0.512729656000303E-002
 0.481632158784411E-002
 0.516815689552853E-002
 0.504227677439826E-002
 0.424450628067502E-002
 0.349477855053487E-002
 0.623016004308765E-002
 0.466734009908126E-002
 0.533743019772741E-002
 0.562591047867219E-002
 0.546740997524464E-002
 0.546764687066546E-002
 0.603969511160476E-002
 0.559494767768102E-002
 0.594260653476557E-002
 0.583154538926819E-002
 0.434303742688007E-001
 0.448861732673871E-001
 0.556039667375540E-001
 0.504805308249106E-001
 0.524165418607626E-002
 0.539477893631020E-002
 0.529369688048494E-002
 0.530216817931897E-002
 0.527362309592493E-002
 0.573390832100368E-002
 0.535299825158713E-002
 0.545553942871298E-002
 0.523179366686331E-002
 0.518573504162391E-002
 0.519708165621532E-002
 0.519951555119028E-002
 0.415777810798646E-002
 0.477351062383561E-002
 0.476666917993971E-002
 0.450628482256161E-002
 0.531082123181278E-001
 0.533532400008013E-001
 0.555451145073768E-001
 0.539941396046202E-001
 0.571626758217564E-002
 0.633433557562466E-002
 0.535140637936876E-002
 0.572579728133767E-002
 0.110700819518276E-001
 0.895919136720782E-002
 0.142145704477977E-001
 0.109768971657606E-001
 0.463727537730077E-002
 0.522185754245152E-002
 0.490074691992253E-002
 0.490118962882735E-002
 0.663727140434263E-002
 0.651936566170318E-002
 0.869097899847091E-002
 0.715752917251732E-002
 0.919059195477052E-002
 0.769309538819540E-002
 0.753871714586966E-002
 0.808242056343289E-002
 0.123436289870349E-001
 0.867597520894769E-002
 0.126423321071918E-001
 0.111915678601572E-001
 0.479336597014154E-002
 0.518103435920231E-002
 0.529766468836932E-002
 0.498849744713852E-002
 0.598513993946136E-002
 0.568007641826588E-002
 0.545663582077193E-002
 0.570454283550416E-002
 0.606394547946998E-002
 0.699117732374431E-002
 0.683955105302967E-002
 0.658894149693580E-002
 0.422812382513177E-002
 0.443668881267207E-002
 0.460462023549460E-002
 0.447118883881285E-002
 0.407914481803796E-001
 0.284459414390126E-001
 0.485954499744498E-001
 0.370996646918090E-001
 0.252789147710070E-001
 0.259214529001310E-001
 0.353470069604864E-001
 0.274930539655685E-001
 0.632025497913875E-002
 0.681195346715787E-002
 0.599821809631736E-002
 0.635996359955052E-002
 0.260689802701744E-001
 0.239534106737484E-001
 0.297047048690361E-001
 0.262687195331762E-001
 0.772380603528004E-002
 0.791492505069362E-002
 0.103339110021445E-001
 0.853637813475511E-002
 0.191059210103760E-001
 0.205074892388081E-001
 0.122607697047467E-001
 0.172842846170770E-001
 0.549590390519348E-002
 0.529183873697553E-002
 0.626254224513656E-002
 0.572655173265125E-002
 0.370232725622996E-002
 0.431305411074627E-002
 0.405710717639904E-002
 0.401405523726407E-002
 0.668755163330093E-002
 0.832152977918351E-002
 0.953047825671297E-002
 0.808222623326583E-002
 0.506954027374328E-001
 0.405673466257757E-001
 0.298478226416182E-001
 0.416306357885166E-001
 0.696344371634381E-001
 0.838316271135844E-001
 0.842472347960603E-001
 0.769606997983266E-001
 0.136750243768500E-001
 0.238895804184899E-001
 0.390235358816766E-001
 0.306095110067598E-001
 0.602101296475745E-001
 0.696338476968698E-001
 0.739885923966449E-001
 0.665116218777464E-001
 0.252883162635141E-001
 0.345667045503202E-001
 0.314271478562670E-001
 0.309603333351589E-001
 0.534233845966653E-001
 0.303837944176458E-001
 0.402877958080208E-001
 0.382158972955936E-001
 0.129819414375451E-001
 0.188853318695825E-001
 0.192567843814840E-001
 0.172081907981428E-001
 0.142740143456129E-001
 0.124147203422714E-001
 0.181245638853969E-001
 0.145382702372641E-001
 0.602505384551420E-002
 0.706611302009563E-002
 0.736789305275961E-002
 0.682253334685443E-002
 0.174536799903583E-001
 0.205236897481257E-001
 0.226283086688412E-001
 0.203362149556312E-001
 0.715356861010820E-002
 0.610740759491143E-002
 0.578176138201585E-002
 0.621717280672668E-002
 0.109930900952200E-001
 0.100905166199468E-001
 0.816363837662621E-002
 0.963156096104271E-002
 0.117238322198469E-001
 0.852960322985498E-002
 0.102543794674895E-001
 0.101548343627845E-001
 0.158008014193878E-001
 0.200585570422737E-001
 0.198029739530625E-001
 0.188124194726763E-001
 0.285953067107105E-001
 0.352945840016444E-001
 0.306292638402405E-001
 0.309439982764245E-001
 0.549934544925600E-002
 0.488644638024044E-002
 0.522004547729814E-002
 0.525635552835909E-002
 0.131990535194461E-001
 0.179328750325334E-001
 0.155242434407986E-001
 0.150471407778374E-001
 0.323354465063541E-002
 0.347018742279303E-002
 0.304229978059748E-002
 0.327816819687374E-002
 0.392083534772859E-002
 0.372287999143620E-002
 0.352622984200381E-002
 0.365047308020593E-002
 0.455377195016724E-002
 0.397278266722288E-002
 0.411743870271794E-002
 0.424775201809979E-002
 0.493011275747635E-002
 0.458588911005738E-002
 0.423621290949983E-002
 0.461631564598110E-002
 0.139793438943579E-001
 0.124762906283867E-001
 0.119305325708453E-001
 0.127639664622338E-001
 0.302003720309839E-002
 0.283099800399172E-002
 0.244548023273557E-002
 0.269614300726286E-002
 0.679763118581986E-002
 0.697153018922028E-002
 0.595929138720181E-002
 0.643387006336342E-002
 0.615243256757762E-002
 0.521754741515857E-002
 0.519106100173842E-002
 0.553332169929096E-002
 0.435141718491681E-002
 0.488173800890368E-002
 0.506978385740102E-002
 0.469606192619378E-002
 0.679895673804787E-001
 0.484837210650219E-001
 0.552788407631934E-001
 0.628007298506762E-001
 0.187832453364457E-001
 0.308737560061515E-001
 0.149404897382890E-001
 0.238073369200325E-001
 0.531167559616212E-002
 0.415911556596406E-002
 0.469345879042792E-002
 0.467343913395161E-002
 0.399191656380532E-002
 0.437950880294040E-002
 0.384110407779760E-002
 0.398116756405656E-002
 0.287257774432987E-002
 0.317092015073655E-002
 0.247941885167636E-002
 0.277851932198987E-002
 0.454722994421955E-002
 0.403644086771721E-002
 0.393213488460310E-002
 0.420413693228033E-002
 0.364919069399484E-002
 0.374244726005274E-002
 0.322211800361835E-002
 0.347175727703710E-002
 0.344564109822049E-002
 0.311261626889033E-002
 0.364328920641159E-002
 0.343098799611976E-002
 0.416863573229840E-001
 0.224965116054542E-001
 0.131346862361561E-001
 0.230119244795888E-001
 0.377893264479302E-001
 0.281361106200853E-001
 0.404552874002598E-001
 0.325285499674121E-001
 0.584019508035863E-002
 0.493095782676202E-002
 0.658128110901278E-002
 0.569930307167308E-002
 0.726333221382104E-002
 0.848976418228755E-002
 0.906581930345833E-002
 0.811383358576600E-002
 0.478577650979989E-002
 0.414774113053482E-002
 0.433473034487893E-002
 0.447479966918259E-002
 0.438619884766238E-002
 0.487099517436118E-002
 0.483656428935442E-002
 0.465971846069042E-002
 0.473809537183043E-002
 0.514395736625796E-002
 0.496743351623661E-002
 0.496252834102168E-002
 0.524888801609697E-002
 0.489766586731332E-002
 0.553957709121727E-002
 0.521552856814291E-002
 0.521162277077869E-002
 0.524342607680074E-002
 0.525539662914983E-002
 0.523194728367393E-002
 0.509468506547205E-002
 0.519789920784132E-002
 0.521151328192119E-002
 0.515793876373781E-002
 0.517425419524487E-002
 0.510106839389418E-002
 0.516610780700225E-002
 0.515559138720883E-002
 0.518850426099093E-002
 0.517031925834904E-002
 0.507643220643821E-002
 0.515133313774413E-002
 0.295248309463794E-002
 0.391089455555101E-002
 0.367272904271895E-002
 0.323136798405586E-002
 0.433671771801785E-002
 0.490102581826551E-002
 0.537554491886579E-002
 0.486330439691504E-002
 0.625498764265900E-001
 0.596961010138249E-001
 0.554440628476191E-001
 0.597391612381340E-001
 0.249205031929318E-001
 0.270670949677525E-001
 0.220567205515209E-001
 0.248310145034782E-001
 0.346639988776503E-001
 0.298933805365857E-001
 0.279619953710386E-001
 0.301140431003122E-001
 0.823217968703013E-001
 0.769878009432391E-001
 0.750889719435004E-001
 0.798517347688472E-001
 0.363179746718977E-001
 0.450928126070071E-001
 0.399881259424330E-001
 0.403529435399450E-001
 0.103934756767869E-001
 0.109971148417661E-001
 0.117334416939311E-001
 0.110003656965227E-001
 0.960028024426278E-002
 0.872207017139713E-002
 0.102838779459001E-001
 0.950023557131740E-002
 0.340321171681607E-001
 0.241863044761726E-001
 0.248266494847313E-001
 0.263513644835671E-001
 0.518336119870297E-001
 0.587452508910183E-001
 0.458108111269061E-001
 0.508745484680593E-001
 0.224517190466297E-001
 0.272563689392189E-001
 0.251100780777905E-001
 0.244663909216386E-001
 0.287413765459986E-001
 0.325278039450804E-001
 0.356360164753163E-001
 0.323791940537812E-001
 0.374646866641845E-001
 0.324403205255914E-001
 0.373271605356033E-001
 0.362252490773442E-001
 0.307426768267320E-001
 0.340784601424080E-001
 0.320943797277281E-001
 0.319959563681741E-001
 0.213317143628307E-001
 0.174356218954251E-001
 0.194531375130432E-001
 0.194717028316772E-001
 0.418085635914126E-001
 0.422244335538129E-001
 0.482625990349887E-001
 0.432420145275059E-001
 0.160956968187702E-001
 0.160917014641860E-001
 0.183923730555857E-001
 0.166995068972432E-001
 0.111574745150690E-001
 0.851649370764282E-002
 0.819336274775120E-002
 0.916038752600721E-002
 0.200902191006638E-001
 0.176836750412620E-001
 0.225340563537709E-001
 0.197257957181232E-001
 0.873988751021043E-002
 0.680933759542432E-002
 0.784118923251250E-002
 0.773392116858807E-002
 0.146834981135304E-001
 0.149382516420738E-001
 0.133249615782214E-001
 0.141735176787606E-001
 0.927300006758217E-002
 0.120110022189628E-001
 0.110339617432890E-001
 0.104451572746303E-001
 0.175549330428188E-001
 0.125985154703072E-001
 0.142031831900711E-001
 0.147329865498845E-001
 0.751832461332281E-001
 0.743232879202751E-001
 0.752292793538381E-001
 0.749938438415694E-001
 0.477140331372372E-001
 0.493571415455210E-001
 0.446758404943776E-001
 0.471793613559946E-001
 0.511208098938995E-001
 0.529514061800466E-001
 0.572234620751106E-001
 0.532631254847468E-001
 0.318768973152114E-001
 0.367057978551824E-001
 0.370701026869968E-001
 0.352766655223410E-001
 0.856049980033549E-001
 0.821496716531684E-001
 0.802955061148691E-001
 0.828347493133248E-001
 0.547574119143446E-001
 0.734338902199997E-001
 0.645525487042076E-001
 0.593351940371906E-001
 0.686047746758667E-001
 0.735573784075412E-001
 0.719347629604173E-001
 0.721912390124335E-001
 0.455038564784898E-001
 0.574712072998459E-001
 0.515821527160576E-001
 0.522236693440823E-001
 0.476406661434920E-001
 0.622994750826527E-001
 0.521771875698132E-001
 0.539104593995086E-001
 0.775313249913085E-001
 0.772318033529720E-001
 0.680118496948826E-001
 0.779801852528287E-001
 0.787597870235513E-001
 0.800853849716845E-001
 0.786197912450977E-001
 0.800083989268921E-001
 0.102264071905047E+000
 0.969369252160593E-001
 0.101230283139727E+000
 0.100768892097751E+000
 0.580726454148359E-001
 0.714769770671581E-001
 0.642348997804448E-001
 0.661290142215565E-001
 0.776096744060147E-001
 0.778476953447383E-001
 0.762086680439997E-001
 0.771101277959590E-001
 0.735903204940706E-001
 0.746518922712548E-001
 0.756294031573608E-001
 0.746061620219430E-001
 0.751144730242396E-001
 0.758182941911341E-001
 0.775881571151193E-001
 0.765026704464525E-001
 0.720812467662001E-001
 0.745162960333545E-001
 0.741677224985481E-001
 0.728011395634389E-001
 0.745835123019764E-001
 0.756147531555863E-001
 0.769400350453499E-001
 0.760291256259619E-001
 0.740912001828883E-001
 0.740641742576637E-001
 0.773539778880558E-001
 0.746501665456725E-001
 0.630436622711038E-001
 0.690745307196362E-001
 0.629689283749045E-001
 0.640375084450574E-001
 0.644431587292416E-001
 0.705070485464575E-001
 0.700227901227214E-001
 0.692758042423038E-001
 0.619543492296727E-001
 0.632535290972603E-001
 0.558732226495538E-001
 0.608930606458623E-001
 0.803284268028375E-001
 0.790813117856918E-001
 0.773803890450620E-001
 0.786467267835864E-001
 0.854592791993274E-001
 0.848704464458142E-001
 0.902054329240514E-001
 0.862221173334204E-001
 0.635392012909654E-001
 0.630300680125367E-001
 0.692041828634648E-001
 0.642410619112754E-001
 0.467730050956791E-001
 0.417906433473540E-001
 0.465906207499717E-001
 0.456902487792124E-001
 0.733780052081256E-001
 0.679529651162000E-001
 0.675872861462849E-001
 0.692683263104930E-001
 0.640703089924947E-001
 0.665933741127584E-001
 0.703592555285819E-001
 0.663661784145210E-001
 0.193244809517264E+000
 0.161341611551905E+000
 0.177821263019913E+000
 0.180806082166547E+000
 0.170025357622918E+000
 0.151946773960050E+000
 0.164014736502058E+000
 0.164679609275018E+000
 0.109285578749222E+000
 0.117351557848692E+000
 0.112072070437116E+000
 0.112743749482907E+000
 0.783040508205247E-001
 0.754937029748861E-001
 0.814016647638467E-001
 0.783280335385187E-001
 0.123284977271217E+000
 0.134768842992981E+000
 0.123074194464942E+000
 0.128835650551490E+000
 0.106148218290075E+000
 0.975532169530244E-001
 0.103637840227576E+000
 0.103921083373235E+000
 0.825662976306105E-001
 0.798009566928865E-001
 0.815691012132168E-001
 0.820372050886004E-001
 0.817862632112495E-001
 0.819057521680692E-001
 0.765032779774663E-001
 0.805491367129202E-001
 0.108349787636985E+000
 0.106908045302322E+000
 0.105580318718771E+000
 0.106751412490945E+000
 0.973545431268475E-001
 0.104312765314179E+000
 0.976117038536440E-001
 0.990457671918392E-001
 0.858241613158406E-001
 0.924432946145862E-001
 0.919058368606086E-001
 0.901384076055484E-001
 0.928180293782877E-001
 0.865828821239923E-001
 0.918744144087232E-001
 0.909997520142861E-001
 0.134741320285370E+000
 0.161555730301529E+000
 0.127012656671703E+000
 0.144561692945975E+000
 0.831461604276198E-001
 0.876890762590608E-001
 0.775996934155917E-001
 0.841721694877510E-001
 0.355672270244858E-001
 0.359797999905942E-001
 0.320704165417263E-001
 0.349495201871650E-001
 0.959060589708856E-001
 0.108658067813864E+000
 0.970031518682415E-001
 0.986413635890539E-001
 0.974090854247536E-001
 0.104226700757865E+000
 0.950127788475594E-001
 0.997352324455624E-001
 0.579159857599211E-001
 0.581114216311662E-001
 0.524009894621717E-001
 0.566676785200861E-001
 0.861721721201162E-001
 0.855797426021618E-001
 0.921977721262754E-001
 0.869995913172370E-001
 0.657217412343163E-001
 0.640502765754898E-001
 0.696031022434643E-001
 0.662351976356207E-001
 0.915158558528761E-001
 0.873894881453867E-001
 0.938089231200480E-001
 0.902038058647045E-001
 0.845071575042207E-001
 0.880157232479332E-001
 0.814178838959053E-001
 0.847970480420829E-001
 0.866293312342828E-001
 0.819323160563490E-001
 0.746871501070680E-001
 0.803732096812259E-001
 0.114562050684215E+000
 0.118495811215724E+000
 0.129652117006768E+000
 0.121246485718596E+000
 0.972535885464667E-001
 0.106972495724461E+000
 0.109849666288421E+000
 0.106656426501479E+000
 0.820535471686674E-001
 0.890499288833913E-001
 0.890720841816247E-001
 0.875472792709258E-001
 0.126597060497071E+000
 0.134755326575937E+000
 0.122028646232258E+000
 0.128841082676503E+000
 0.124119919287387E+000
 0.137891910235858E+000
 0.135745469280956E+000
 0.132223394274887E+000
 0.660348742964435E-001
 0.788519144097346E-001
 0.930651163856738E-001
 0.852210485972474E-001
 0.720273540462186E-001
 0.748124980534839E-001
 0.682374437472452E-001
 0.718576324681576E-001
 0.219442088019702E+000
 0.192243662214595E+000
 0.195273813741121E+000
 0.203276562536381E+000
 0.992678180445717E-001
 0.111553904060636E+000
 0.107321217827044E+000
 0.105329377541503E+000
 0.402375007966585E-001
 0.378393717554414E-001
 0.411398978872200E-001
 0.391194052212759E-001
 0.848153444407324E-001
 0.734306812646319E-001
 0.784699592853989E-001
 0.797594202853000E-001
 0.569917325329374E-001
 0.646478626962519E-001
 0.640891878871663E-001
 0.622413229792244E-001
 0.641506074639773E-001
 0.565014375654474E-001
 0.624779161421063E-001
 0.617832285882496E-001
 0.679153613808623E-001
 0.749514358250311E-001
 0.700492494548357E-001
 0.700535624106621E-001
 0.425904087659316E-001
 0.443144201174525E-001
 0.417242681077879E-001
 0.427455468847195E-001
 0.550330512411238E-001
 0.600393521739419E-001
 0.614268384409362E-001
 0.596187299245505E-001
 0.699267359874366E-001
 0.640270147667397E-001
 0.699378758956903E-001
 0.689229795192841E-001
 0.515449224201925E-001
 0.572544199143220E-001
 0.527784256651406E-001
 0.533043371086041E-001
 0.493206996034199E-001
 0.461321210441397E-001
 0.448536808535155E-001
 0.463632764319229E-001
 0.406540715802663E-001
 0.411318460605647E-001
 0.456421422928669E-001
 0.419639687955955E-001
 0.542471908712195E-001
 0.604686512810283E-001