# vtk DataFile Version 3.0
Unstructured Grid
ASCII
DATASET UNSTRUCTURED_GRID
FIELD FieldData 1
TIME 1 1 float
  0.915330E+03
POINTS         2588 double
 0.000000000000000E+000 0.000000000000000E+000 0.000000000000000E+000
 0.100000000000000E+001 0.000000000000000E+000 0.000000000000000E+000
 0.100000000000000E+001 0.100000000000000E+001 0.000000000000000E+000
 0.000000000000000E+000 0.100000000000000E+001 0.000000000000000E+000
 0.125000000000000E+000 0.250000000000000E+000 0.000000000000000E+000
 0.375000000000000E+000 0.250000000000000E+000 0.000000000000000E+000
 0.375000000000000E+000 0.750000000000000E+000 0.000000000000000E+000
 0.125000000000000E+000 0.750000000000000E+000 0.000000000000000E+000
 0.625000000000000E+000 0.250000000000000E+000 0.000000000000000E+000
 0.875000000000000E+000 0.250000000000000E+000 0.000000000000000E+000
 0.875000000000000E+000 0.750000000000000E+000 0.000000000000000E+000
 0.625000000000000E+000 0.750000000000000E+000 0.000000000000000E+000
 0.100000000000000E+001 0.500000000000000E+000 0.000000000000000E+000
 0.000000000000000E+000 0.500000000000000E+000 0.000000000000000E+000
 0.500000000000000E+000 0.000000000000000E+000 0.000000000000000E+000
 0.125000000000000E+000 0.500000000000000E+000 0.000000000000000E+000
 0.000000000000000E+000 0.750000000000000E+000 0.000000000000000E+000
 0.000000000000000E+000 0.250000000000000E+000 0.000000000000000E+000
 0.000000000000000E+000 0.875000000000000E+000 0.000000000000000E+000
 0.000000000000000E+000 0.125000000000000E+000 0.000000000000000E+000
 0.000000000000000E+000 0.812500000000000E+000 0.000000000000000E+000
 0.625000000000000E-001 0.812500000000000E+000 0.000000000000000E+000
 0.125000000000000E+000 0.375000000000000E+000 0.000000000000000E+000
 0.000000000000000E+000 0.375000000000000E+000 0.000000000000000E+000
 0.125000000000000E+000 0.625000000000000E+000 0.000000000000000E+000
 0.312500000000000E-001 0.781250000000000E+000 0.000000000000000E+000
 0.000000000000000E+000 0.625000000000000E+000 0.000000000000000E+000
 0.781250000000000E-001 0.765625000000000E+000 0.000000000000000E+000
 0.364583333333333E-001 0.744791666666667E+000 0.000000000000000E+000
 0.000000000000000E+000 0.687500000000000E+000 0.000000000000000E+000
 0.312500000000000E-001 0.843750000000000E+000 0.000000000000000E+000
 0.500000000000000E+000 0.100000000000000E+001 0.000000000000000E+000
 0.117915518486872E+000 0.805415518486872E+000 0.000000000000000E+000
 0.531250000000000E-001 0.896875000000000E+000 0.000000000000000E+000
 0.128125000000000E+000 0.862500000000000E+000 0.000000000000000E+000
 0.852352799227800E-001 0.850726351351351E+000 0.000000000000000E+000
 0.250000000000000E+000 0.750000000000000E+000 0.000000000000000E+000
 0.000000000000000E+000 0.937500000000000E+000 0.000000000000000E+000
 0.250000000000000E+000 0.100000000000000E+001 0.000000000000000E+000
 0.125000000000000E+000 0.100000000000000E+001 0.000000000000000E+000
 0.559955578663221E-001 0.864626829113867E+000 0.000000000000000E+000
 0.201656717908302E+000 0.819893736067327E+000 0.000000000000000E+000
 0.181985294117647E-001 0.906250000000000E+000 0.000000000000000E+000
 0.157158578892515E+000 0.827852167423944E+000 0.000000000000000E+000
 0.173219498992632E+000 0.789273026175030E+000 0.000000000000000E+000
 0.190370748034901E+000 0.885171153579592E+000 0.000000000000000E+000
 0.163362285670037E+000 0.862539079232243E+000 0.000000000000000E+000
 0.145689809422689E+000 0.911060496538305E+000 0.000000000000000E+000
 0.260169562085505E+000 0.921822264266383E+000 0.000000000000000E+000
 0.999952720236157E-001 0.900131729869707E+000 0.000000000000000E+000
 0.181336648989602E+000 0.921080529637299E+000 0.000000000000000E+000
 0.187500000000000E+000 0.100000000000000E+001 0.000000000000000E+000
 0.625000000000000E-001 0.100000000000000E+001 0.000000000000000E+000
 0.391044682108720E-001 0.939348618511729E+000 0.000000000000000E+000
 0.987901813178879E-001 0.953497897705852E+000 0.000000000000000E+000
 0.127430470763290E+000 0.938015442955272E+000 0.000000000000000E+000
 0.735147503821561E-001 0.927156548383149E+000 0.000000000000000E+000
 0.187500000000000E+000 0.750000000000000E+000 0.000000000000000E+000
 0.937500000000000E-001 0.986976003387646E+000 0.000000000000000E+000
 0.647068558612996E-001 0.964310770745732E+000 0.000000000000000E+000
 0.287348941263244E-001 0.975594752089430E+000 0.000000000000000E+000
 0.140548246895551E+000 0.780148342865875E+000 0.000000000000000E+000
 0.625000000000000E-001 0.656250000000000E+000 0.000000000000000E+000
 0.885416666666667E-001 0.718750000000000E+000 0.000000000000000E+000
 0.125000000000000E+000 0.687500000000000E+000 0.000000000000000E+000
 0.418778153153153E-001 0.701096693284193E+000 0.000000000000000E+000
 0.130000591648319E-001 0.718750000000000E+000 0.000000000000000E+000
 0.886787280701754E-001 0.682017543859649E+000 0.000000000000000E+000
 0.324539302647226E+000 0.874753539998500E+000 0.000000000000000E+000
 0.220842706957930E+000 0.911928394103011E+000 0.000000000000000E+000
 0.255656705174793E+000 0.856653769033302E+000 0.000000000000000E+000
 0.230240640268531E+000 0.957679342037283E+000 0.000000000000000E+000
 0.247273788001812E+000 0.889974781313083E+000 0.000000000000000E+000
 0.287822583654814E+000 0.892090285129540E+000 0.000000000000000E+000
 0.375000000000000E+000 0.100000000000000E+001 0.000000000000000E+000
 0.312500000000000E+000 0.100000000000000E+001 0.000000000000000E+000
 0.296339471848887E+000 0.927737349884604E+000 0.000000000000000E+000
 0.272754945277513E+000 0.963602684427479E+000 0.000000000000000E+000
 0.218750000000000E+000 0.100000000000000E+001 0.000000000000000E+000
 0.156250000000000E+000 0.970185411869689E+000 0.000000000000000E+000
 0.193067439035452E+000 0.962879965079150E+000 0.000000000000000E+000
 0.366022419631980E+000 0.930828672570042E+000 0.000000000000000E+000
 0.331917636626289E+000 0.912676918057824E+000 0.000000000000000E+000
 0.218750000000000E+000 0.780050991479902E+000 0.000000000000000E+000
 0.270314960374965E+000 0.802399429390985E+000 0.000000000000000E+000
 0.239019213447470E+000 0.823051378525603E+000 0.000000000000000E+000
 0.312500000000000E+000 0.750000000000000E+000 0.000000000000000E+000
 0.297176692881550E+000 0.838764170920897E+000 0.000000000000000E+000
 0.316491084060399E+000 0.796393690767677E+000 0.000000000000000E+000
 0.343750000000000E+000 0.770680188507291E+000 0.000000000000000E+000
 0.409908719410776E+000 0.836702006091634E+000 0.000000000000000E+000
 0.362591033297072E+000 0.817958948082628E+000 0.000000000000000E+000
 0.401086171766563E+000 0.789875587437421E+000 0.000000000000000E+000
 0.371341896832358E+000 0.864966336467817E+000 0.000000000000000E+000
 0.333452116450771E+000 0.839580614538559E+000 0.000000000000000E+000
 0.625000000000000E+000 0.500000000000000E+000 0.000000000000000E+000
 0.497245004128187E+000 0.796002674320860E+000 0.000000000000000E+000
 0.375000000000000E+000 0.625000000000000E+000 0.000000000000000E+000
 0.448383797292392E+000 0.805208595628784E+000 0.000000000000000E+000
 0.410140101146819E+000 0.755482168792868E+000 0.000000000000000E+000
 0.466643384891561E+000 0.767852445997818E+000 0.000000000000000E+000
 0.476967665188550E+000 0.732032311892081E+000 0.000000000000000E+000
 0.540753556856103E+000 0.747012385328872E+000 0.000000000000000E+000
 0.490851671729155E+000 0.896339978179292E+000 0.000000000000000E+000
 0.457989751325779E+000 0.856193010026991E+000 0.000000000000000E+000
 0.477617377726983E+000 0.826097842173926E+000 0.000000000000000E+000
 0.546397010943533E+000 0.849506899903764E+000 0.000000000000000E+000
 0.514994092174850E+000 0.829026377565149E+000 0.000000000000000E+000
 0.557956128164421E+000 0.797467818442289E+000 0.000000000000000E+000
 0.513053884697208E+000 0.866316721845202E+000 0.000000000000000E+000
 0.531719458287368E+000 0.903340824708691E+000 0.000000000000000E+000
 0.750000000000000E+000 0.100000000000000E+001 0.000000000000000E+000
 0.503122841217304E+000 0.947490703764094E+000 0.000000000000000E+000
 0.428509525448068E+000 0.913846660476909E+000 0.000000000000000E+000
 0.625000000000000E+000 0.100000000000000E+001 0.000000000000000E+000
 0.410139362032626E+000 0.877461197108989E+000 0.000000000000000E+000
 0.393550593852374E+000 0.908666538512922E+000 0.000000000000000E+000
 0.455853425536278E+000 0.891464570133054E+000 0.000000000000000E+000
 0.465565809489837E+000 0.931223943045515E+000 0.000000000000000E+000
 0.430803944763131E+000 0.957152995135723E+000 0.000000000000000E+000
 0.361862549463301E+000 0.897277191535820E+000 0.000000000000000E+000
 0.281250000000000E+000 0.768022264880110E+000 0.000000000000000E+000
 0.528016132294562E+000 0.779515446907155E+000 0.000000000000000E+000
 0.582435077211395E+000 0.760961532636893E+000 0.000000000000000E+000
 0.594258447236559E+000 0.718750000000000E+000 0.000000000000000E+000
 0.513210480866922E+000 0.721000388231171E+000 0.000000000000000E+000
 0.625000000000000E+000 0.625000000000000E+000 0.000000000000000E+000
 0.293099715520438E+000 0.681007179427844E+000 0.000000000000000E+000
 0.625000000000000E+000 0.687500000000000E+000 0.000000000000000E+000
 0.375000000000000E+000 0.500000000000000E+000 0.000000000000000E+000
 0.588365877190365E+000 0.682207614843486E+000 0.000000000000000E+000
 0.544806337802789E+000 0.700097114505632E+000 0.000000000000000E+000
 0.473117607324743E+000 0.654334216996401E+000 0.000000000000000E+000
 0.507976816774602E+000 0.678758937084175E+000 0.000000000000000E+000
 0.471770128441152E+000 0.693345422145358E+000 0.000000000000000E+000
 0.540484989053884E+000 0.595274872726202E+000 0.000000000000000E+000
 0.434924684287812E+000 0.717988149163748E+000 0.000000000000000E+000
 0.438762107036035E+000 0.672676424045669E+000 0.000000000000000E+000
 0.514022824851611E+000 0.633041943182225E+000 0.000000000000000E+000
 0.375000000000000E+000 0.687500000000000E+000 0.000000000000000E+000
[...]
CELL_DATA         5036
SCALARS tdens double 1
LOOKUP_TABLE default
 0.100000000000000E-011
 0.100000000000000E-011
 0.100000000000000E-011
 0.100000000000000E-011
 0.228907166898107E-010
 0.100000000000000E-011
 0.122455468214199E-011
 0.102169827950185E-011
 0.544908279476326E-001
 0.874919022042265E-001
 0.966404011721003E-001
 0.927638670551781E-001
 0.100000000000000E-011
 0.100000000000000E-011
 0.100000000000000E-011
 0.100000000000000E-011
 0.100000000000000E-011
 0.100000000000000E-011
 0.100000000000000E-011
 0.100000000000000E-011
 0.100000000000000E-011
 0.100000000000000E-011
 0.100000000000000E-011
 0.100000000000000E-011
 0.441798708021638E-002
 0.297577018724445E-002
 0.462621591651202E-001
 0.386673247636251E-002
 0.120752516678745E+000
 0.152033919130645E+000
 0.110490120960787E+000
 0.119645549697384E+000
 0.160675318396886E+000
 0.202677740370594E+000
 0.207893294846068E+000
 0.205803062560161E+000
 0.100000000000000E-011
 0.100000000000000E-011
 0.100000000000000E-011
 0.100000000000000E-011
 0.100000000000000E-011
 0.100000000000000E-011
 0.100000000000000E-011
 0.100000000000000E-011
 0.378341265904432E-009
 0.149244805930672E-008
 0.876793855709555E-009
 0.886503684293844E-009
 0.100000000000000E-011
 0.100000000000000E-011
 0.100000000000000E-011
 0.100000000000000E-011
 0.127833723689420E+000
 0.762171967717974E-001
 0.998788846481761E-001
 0.863589129036723E-001
 0.114945096193836E-002
 0.569503172295835E-004
 0.145622023308289E-003
 0.123810543767716E-003
 0.133623990253468E+000
 0.147554904883086E+000
 0.205924984762295E+000
 0.144076888732538E+000
 0.100000000000000E-011
 0.100000000000000E-011
 0.100000000000000E-011
 0.100000000000000E-011
 0.100000000000000E-011
 0.719287592520384E-002
 0.186778587991350E-003
 0.220998952051664E-003
 0.100000000000000E-011
 0.100000000000000E-011
 0.100000000000000E-011
 0.100000000000000E-011
 0.147016434882919E+000
 0.151408337040487E+000
 0.126232432815600E+000
 0.149820182561089E+000
 0.839384233992750E-008
 0.388940643138118E-006
 0.345291242563895E-008
 0.683118692511213E-008
 0.100000000000000E-011
 0.100000000000000E-011
 0.100000000000000E-011
 0.100000000000000E-011
 0.151023735724929E+000
 0.149460201665392E+000
 0.136983193885569E+000
 0.149397655680789E+000
 0.100000000000000E-011
 0.100000000000000E-011
 0.100000000000000E-011
 0.100000000000000E-011
 0.143240400914451E+000
 0.159196875542598E+000
 0.161642288826001E+000
 0.160816377202515E+000
 0.111421238063202E+000
 0.122011811516415E+000
 0.808376475351428E-001
 0.114718243117536E+000
 0.100000000000000E-011
 0.100000000000000E-011
 0.100000000000000E-011
 0.100000000000000E-011
 0.109858023702650E-003
 0.451532819497925E-005
 0.709272714026821E-004
 0.801572938424264E-004
 0.196058232406725E-001
 0.367578841370802E-002
 0.219705244914615E-001
 0.199011672258306E-001
 0.100000000000000E-011
 0.100000000000000E-011
 0.100000000000000E-011
 0.100000000000000E-011
 0.100000000000000E-011
 0.100000000000000E-011
 0.100000000000000E-011
 0.100000000000000E-011
 0.100000000000000E-011
 0.100000000000000E-011
 0.100000000000000E-011
 0.100000000000000E-011
 0.100000000000000E-011
 0.100000000000000E-011
 0.100000000000000E-011
 0.100000000000000E-011
 0.100000000000000E-011
 0.470464685022380E-002
 0.654291121057887E-002
 0.697586772391637E-002
 0.100000000000000E-011
 0.100000000000000E-011
 0.100000000000000E-011
 0.100000000000000E-011
 0.100000000000000E-011
 0.100000000000000E-011
 0.100000000000000E-011
 0.100000000000000E-011
 0.100000000000000E-011
 0.100000000000000E-011
 0.100000000000000E-011
 0.100000000000000E-011
 0.100000000000000E-011
 0.100000000000000E-011
 0.100000000000000E-011
 0.100000000000000E-011
 0.100000000000000E-011
 0.100000000000000E-011
 0.100000000000000E-011
 0.100000000000000E-011
 0.100000000000000E-011
 0.100000000000000E-011
 0.100000000000000E-011
 0.100000000000000E-011
 0.100000000000000E-011
 0.100000000000000E-011
 0.100000000000000E-011
 0.100000000000000E-011
 0.331767376820241E-001
 0.509635074469535E-001
 0.602993158725162E-001
 0.530645225618455E-001
 0.100000000000000E-011
 0.100000000000000E-011
 0.100000000000000E-011
 0.100000000000000E-011
 0.100000000000000E-011
 0.100000000000000E-011
 0.100000000000000E-011
 0.100000000000000E-011
 0.100000000000000E-011
 0.100000000000000E-011
 0.100000000000000E-011
 0.100000000000000E-011
 0.100000000000000E-011
 0.100000000000000E-011
 0.100000000000000E-011
 0.100000000000000E-011
 0.332083731623806E-008
 0.157478512799580E-007
 0.189740582335924E-007
 0.196776851202713E-007
 0.100000000000000E-011
 0.100000000000000E-011
 0.100000000000000E-011
 0.100000000000000E-011
 0.100000000000000E-011
 0.256943892234228E-002
 0.103689713714633E-001
 0.528375169307287E-002
 0.100000000000000E-011
 0.100000000000000E-011
 0.100000000000000E-011
 0.100000000000000E-011
 0.100000000000000E-011
 0.100000000000000E-011
 0.100000000000000E-011
 0.100000000000000E-011
 0.100000000000000E-011
 0.100000000000000E-011
 0.100000000000000E-011
 0.100000000000000E-011
 0.100000000000000E-011
 0.100000000000000E-011
 0.100000000000000E-011
 0.100000000000000E-011
 0.100000000000000E-011
 0.100000000000000E-011
 0.100000000000000E-011
 0.100000000000000E-011
 0.100000000000000E-011
 0.100000000000000E-011
 0.100000000000000E-011
 0.100000000000000E-011
 0.100000000000000E-011
 0.100000000000000E-011
 0.100000000000000E-011
 0.100000000000000E-011
 0.100000000000000E-011
 0.100000000000000E-011
 0.100000000000000E-011
 0.100000000000000E-011
 0.517338611566731E-001
 0.338244978725361E-001
 0.640785137589373E-001
 0.399631664658635E-001
 0.278698436393829E-007
 0.178616782579982E-005
 0.322105014761692E-003
 0.260482759461791E-005
 0.100000000000000E-011
 0.100000000000000E-011
 0.100000000000000E-011
 0.100000000000000E-011
 0.446854814453357E-008
 0.282081767600760E-008
 0.522163721477216E-006
 0.262219305689678E-008
 0.100000000000000E-011
 0.100000000000000E-011
 0.100000000000000E-011
 0.100000000000000E-011
 0.560274744423169E-002
 0.220850621143911E-001
 0.690943410557415E-003
 0.654547220959191E-002
 0.100000000000000E-011
 0.100000000000000E-011
 0.100000000000000E-011
 0.100000000000000E-011
 0.100000000000000E-011
 0.100000000000000E-011
 0.100000000000000E-011
 0.100000000000000E-011
 0.100000000000000E-011
 0.100000000000000E-011
 0.100000000000000E-011
 0.100000000000000E-011
 0.324390946410476E-001
 0.538410317649005E-002
 0.136795786496904E-002
 0.457440399199328E-002
 0.883597489561376E-001
 0.117445754990946E+000
 0.109293051775377E+000
 0.100615536627475E+000
 0.148082355653642E-001
 0.297676106172405E-001
 0.493124578831701E-001
 0.385715659488152E-001
 0.313116592523668E-001
 0.680652609754652E-001
 0.945650503503875E-001
 0.680022036118841E-001
 0.443796520262471E-008
 0.202483801729018E-003
 0.119624176092172E-004
 0.145378424597805E-004
 0.279943126689409E-001
 0.120182294500874E-002
 0.135274297220293E-001
 0.163160442090212E-001
 0.100000000000000E-011
 0.100000000000000E-011
 0.100000000000000E-011
 0.100000000000000E-011
 0.100000000000000E-011
 0.100000000000000E-011
 0.100000000000000E-011
 0.100000000000000E-011
 0.100000000000000E-011
 0.100000000000000E-011
 0.100000000000000E-011
 0.100000000000000E-011
 0.100000000000000E-011
 0.689293874966238E-010
 0.100530148793632E-009
 0.492197733210906E-010
 0.100000000000000E-011
 0.100000000000000E-011
 0.100000000000000E-011
 0.100000000000000E-011
 0.100000000000000E-011
 0.100000000000000E-011
 0.100000000000000E-011
 0.100000000000000E-011
 0.100000000000000E-011
 0.100000000000000E-011
 0.100000000000000E-011
 0.100000000000000E-011
 0.100000000000000E-011
 0.100000000000000E-011
 0.100000000000000E-011
 0.100000000000000E-011
 0.102210887319924E-007
 0.134910233727182E-006
 0.134523501517855E-007
 0.146679215868348E-007
 0.100000000000000E-011
 0.100000000000000E-011
 0.100000000000000E-011
 0.100000000000000E-011
 0.100000000000000E-011
 0.100000000000000E-011
 0.100000000000000E-011
 0.100000000000000E-011
 0.100000000000000E-011
 0.100000000000000E-011
 0.100000000000000E-011
 0.100000000000000E-011
 0.100000000000000E-011
 0.100000000000000E-011
 0.100000000000000E-011
 0.100000000000000E-011
 0.100000000000000E-011
 0.100000000000000E-011
 0.100000000000000E-011
 0.100000000000000E-011
 0.100000000000000E-011
 0.100000000000000E-011
 0.100000000000000E-011
 0.100000000000000E-011
 0.100000000000000E-011
 0.100000000000000E-011
 0.100000000000000E-011
 0.100000000000000E-011
 0.100000000000000E-011
 0.100000000000000E-011
 0.100000000000000E-011
 0.100000000000000E-011
 0.100000000000000E-011
 0.100000000000000E-011
 0.100000000000000E-011
 0.100000000000000E-011
 0.100000000000000E-011
 0.100000000000000E-011
 0.100000000000000E-011
 0.100000000000000E-011
 0.100000000000000E-011
 0.100000000000000E-011
 0.100000000000000E-011
 0.100000000000000E-011
 0.873700425959374E-001
 0.597631432514633E-001
 0.698753009350078E-001
 0.792147551209000E-001
 0.156127752566514E-001
 0.231251816419430E-001
 0.792157169749819E-002
 0.161240013645181E-001
 0.100000000000000E-011
 0.100000000000000E-011
 0.100000000000000E-011
 0.100000000000000E-011
 0.100000000000000E-011
 0.100000000000000E-011
 0.100000000000000E-011
 0.100000000000000E-011
 0.100000000000000E-011
 0.100000000000000E-011
 0.100000000000000E-011
 0.100000000000000E-011
 0.100000000000000E-011
 0.100000000000000E-011
 0.100000000000000E-011
 0.100000000000000E-011
 0.100000000000000E-011
 0.100000000000000E-011
 0.100000000000000E-011
 0.100000000000000E-011
 0.100000000000000E-011
 0.100000000000000E-011
 0.100000000000000E-011
 0.100000000000000E-011
 0.491514293058357E-001
 0.197166682398447E-001
 0.133280779819526E-001
 0.321473796177508E-001
 0.286525631194142E-001
 0.254945252885064E-001
 0.427078960109552E-001
 0.348004803249831E-001
 0.100000000000000E-011
 0.100000000000000E-011
 0.100000000000000E-011
 0.100000000000000E-011
 0.100000000000000E-011
 0.100000000000000E-011
 0.100000000000000E-011
 0.100000000000000E-011
 0.100000000000000E-011
 0.100000000000000E-011
 0.100000000000000E-011
 0.100000000000000E-011
 0.100000000000000E-011
 0.100000000000000E-011
 0.100000000000000E-011
 0.100000000000000E-011
 0.100000000000000E-011
 0.100000000000000E-011
 0.100000000000000E-011
 0.100000000000000E-011
 0.100000000000000E-011
 0.100000000000000E-011
 0.100000000000000E-011
 0.100000000000000E-011
 0.100000000000000E-011
 0.100000000000000E-011
 0.100000000000000E-011
 0.100000000000000E-011
 0.100000000000000E-011
 0.100000000000000E-011
 0.100000000000000E-011
 0.100000000000000E-011
 0.100000000000000E-011
 0.100000000000000E-011
 0.100000000000000E-011
 0.100000000000000E-011
 0.100000000000000E-011
 0.100000000000000E-011
 0.100000000000000E-011
 0.100000000000000E-011
 0.100000000000000E-011
 0.100000000000000E-011
 0.100000000000000E-011
 0.100000000000000E-011
 0.100000000000000E-011
 0.100000000000000E-011
 0.100000000000000E-011
 0.100000000000000E-011
 0.459824113357880E-001
 0.240499156974265E-001
 0.884140850865982E-002
 0.226347236364867E-001
 0.299423265632941E-009
 0.758226976072719E-009
 0.140740058198134E-011
 0.316611898055229E-009
 0.158004209378293E-007
 0.109209933670707E-009
 0.100870274460230E-009
 0.118005365506739E-009
 0.112746346639128E+000
 0.111330320348660E+000
 0.918242238704153E-001
 0.113785554656693E+000
 0.298922695541413E-004
 0.178353256357994E-002
 0.508131319759417E-004
 0.390559885079579E-004
 0.100000000000000E-011
 0.100000000000000E-011
 0.100000000000000E-011
 0.100000000000000E-011
 0.100000000000000E-011
 0.100000000000000E-011
 0.100000000000000E-011
 0.100000000000000E-011
 0.195793205177383E-003
 0.570524716690144E-008
 0.154724780544839E-007
 0.115475232752042E-007
 0.796345583291177E-002
 0.233354141032201E-001
 0.122238831190137E-002
 0.748600199793613E-002
 0.173361669909099E-011
 0.845836587811898E-009
 0.140443688595386E-010
 0.134026297626628E-010
 0.105562336495830E-007
 0.441968766146700E-006
 0.155594393932771E-006
 0.244849726674638E-006
 0.570871570107909E-007
 0.133753950917932E-007
 0.104961834361108E-006
 0.675917452644907E-007
 0.906221153752133E-011
 0.138808789545269E-010
 0.100000000000000E-011
 0.716742539210420E-011
 0.100000000000000E-011
 0.100000000000000E-011
 0.100000000000000E-011
 0.100000000000000E-011
 0.115890727783943E-004
 0.353594912375579E-004
 0.130880553016909E-002
 0.273223314740943E-004
 0.100000000000000E-011
 0.100000000000000E-011
 0.100000000000000E-011
 0.100000000000000E-011
 0.100000000000000E-011
 0.100000000000000E-011
 0.100000000000000E-011
 0.100000000000000E-011
 0.100000000000000E-011
 0.100000000000000E-011
 0.115679297126137E-009
 0.100000000000000E-011
 0.100000000000000E-011
 0.100000000000000E-011
 0.100000000000000E-011
 0.100000000000000E-011
 0.100000000000000E-011
 0.100000000000000E-011
 0.100000000000000E-011
 0.100000000000000E-011
 0.100000000000000E-011
 0.100000000000000E-011
 0.100000000000000E-011
 0.100000000000000E-011
 0.100000000000000E-011
 0.100000000000000E-011
 0.100000000000000E-011
 0.100000000000000E-011
 0.132383984726941E+000
 0.134349849967510E+000
 0.131829727933825E+000
 0.134024893351471E+000
 0.454560543084434E-005
 0.485693484730165E-005
 0.439175320372950E-008
 0.487514083918510E-005
 0.784120351602009E-003
 0.292974661846171E-002
 0.735665605646359E-002
 0.321901913223100E-002
 0.121740469994197E-009
 0.140062768499737E-007
 0.152888858854369E-007
 0.149586828463194E-007
 0.114957416177154E+000
 0.118322885946882E+000
 0.121702055257792E+000
 0.118083153850214E+000
 0.690779076581033E-001
 0.947379406382821E-001
 0.796789227720899E-001
 0.758669523898732E-001
 0.877781504053096E-001
 0.124867629640397E+000
 0.115555643638333E+000
 0.118994700213034E+000
 0.117910881849270E-002
 0.231787578153896E-001
 0.475818470226593E-002
 0.511841530586358E-002
 0.997726071391729E-002
 0.506853793549033E-001
 0.154849815410646E-001
 0.136172664090876E-001
 0.104642287500799E+000
 0.959351530157258E-001
 0.867232777535862E-001
 0.943472623262616E-001
 0.124299918569267E+000
 0.120288075319715E+000
 0.122133582744663E+000
 0.120077011541642E+000
 0.141387784257077E+000
 0.125732693949184E+000
 0.134244973359992E+000
 0.138057835754955E+000
 0.310443223484807E-001
 0.961361333198285E-001
 0.597893444471484E-001
 0.580770640936418E-001
 0.125590713036519E+000
 0.123543432261488E+000
 0.128392179675597E+000
 0.127642517730765E+000
 0.127098077564301E+000
 0.130073187845939E+000
 0.130829551606517E+000
 0.128321710911907E+000
 0.125474013030145E+000
 0.102150357658480E+000
 0.129895392326871E+000
 0.127607843857009E+000
 0.116334518962180E+000
 0.102160982985693E+000
 0.124694790541505E+000
 0.116026355082011E+000
 0.134923036308914E+000
 0.135405136385353E+000
 0.141257849881452E+000
 0.138508003529698E+000
 0.127919490749298E+000
 0.133553892042345E+000
 0.144527838874922E+000
 0.132497934792310E+000
 0.410308076545068E-001
 0.828226630854449E-001
 0.332004451237468E-001
 0.382914900031458E-001
 0.481436198659274E-001
 0.100904264414918E+000
 0.902349419156638E-001
 0.930324350461710E-001
 0.343271452929628E-001
 0.439245092246252E-001
 0.761075486158715E-002
 0.383902678682752E-001
 0.970663356741102E-001
 0.131278966741516E+000
 0.103128675927911E+000
 0.100280840547923E+000
 0.139596281542108E+000
 0.976061995364115E-001
 0.996983373177456E-001
 0.988684087453739E-001
 0.188833996396505E-001
 0.244516995683449E-001
 0.556023127047334E-001
 0.232269827361776E-001
 0.181845328277216E-004
 0.293738426711544E-006
 0.448737090598564E-004
 0.211139956747047E-004
 0.124220649934543E+000
 0.885938748605782E-001
 0.846314248915155E-001
 0.876504219679579E-001
 0.517274424693005E-001
 0.746288352626605E-001
 0.103508104609617E+000
 0.707908804159868E-001
 0.338152216758246E+000
 0.286998076753611E+000
 0.318853942204027E+000
 0.320871325684456E+000
 0.225200605512017E+000
 0.179145601934002E+000
 0.226714348659901E+000
 0.223293201261027E+000
 0.451957293441743E-001
 0.808579590890344E-001
 0.355160139828340E-001
 0.447030724459183E-001
 0.947581965919084E-001
 0.100434627375975E+000
 0.144786246937499E+000
 0.964025704200820E-001
 0.147572958133547E+000
 0.208151626208624E+000
 0.206617340461987E+000
 0.206601415659991E+000
 0.279862049745923E-001
 0.221167306867938E-001
 0.311332760235097E-001
 0.247825516935297E-001
 0.137537514611165E+000
 0.132501957528013E+000
 0.965183665543513E-001
 0.136340971204734E+000
 0.152527683732441E+000
 0.146943964050856E+000
 0.108506146156150E+000
 0.145929173254115E+000
 0.160634701026192E+000
 0.172659986890275E+000
 0.168640045995266E+000
 0.170183956644274E+000
 0.601186947776392E-001
 0.111968163203939E+000
 0.435125269614438E-001
 0.544126124397036E-001
 0.181047925650100E-001
 0.208921156073834E-001
 0.200125644058715E-001
 0.193974097338432E-001
 0.122979323011517E+000
 0.138288346277209E+000
 0.101208288168672E+000
 0.122398035272380E+000
 0.117318825682481E+000
 0.161881168054049E+000
 0.997978885347219E-001
 0.134108520823923E+000
 0.148000130629358E-001
 0.187108842533999E-001
 0.169675103770865E-001
 0.157356688792551E-001
 0.124788915635041E-007
 0.106973186062055E-007
 0.333550074687464E-008
 0.101286278003471E-007
 0.167982386110424E+000
 0.134624230738790E+000
 0.175673998254497E+000
 0.171646547835907E+000
 0.126396800787625E+000
 0.102714772752337E+000
 0.156031713251111E+000
 0.126690599691480E+000
 0.575990589453919E-002
 0.415419403427533E-002
 0.354007225532314E-003
 0.464310487860903E-002
 0.159456426505306E+000
 0.151654772436544E+000
 0.136029860923053E+000
 0.153346898181079E+000
 0.189770930780927E-001
 0.181299042851959E-001
 0.551610598120155E-001
 0.187586910115758E-001
 0.164344204303414E+000
 0.162161407500408E+000
 0.134649884063593E+000
 0.165820951725264E+000
 0.149628418457194E+000
 0.159329349730042E+000
 0.952921244564742E-001
 0.153308726257014E+000
 0.101494815369818E+000
 0.542137168391513E-001
 0.291194955032249E-001
 0.532081643214346E-001
 0.184448062303259E+000
 0.133968309268131E+000
 0.127521136178712E+000
 0.131259516071917E+000
 0.159113191998029E+000
 0.101698007035538E+000
 0.123024831565442E+000
 0.116623692569057E+000
 0.949653141763533E-001
 0.160776334140167E+000
 0.138606395997075E+000
 0.140129032650736E+000
 0.567716356901161E-001
 0.664082344138597E-001
 0.563502788097956E-001
 0.592306931754771E-001
 0.613386048601323E-001
 0.708152371126523E-001
 0.712845387743794E-001
 0.656285936174659E-001
 0.130682814315223E-002
 0.194486214977617E-002
 0.743170516623955E-001
 0.184126639095345E-002
 0.553119496307630E-001
 0.555410069035187E-001
 0.192193785196926E-001
 0.558738946380289E-001
 0.252666747688866E+000
 0.152682463491623E+000
 0.190339351514973E+000
 0.191011227332868E+000
 0.178837157429580E+000
 0.137083823981891E+000
 0.181794395045636E+000
 0.180563439562881E+000
 0.849687274947383E-011
 0.924592820257855E-010
 0.244237351472894E-009
 0.828445150924802E-010
 0.964850850938391E-001
 0.275871961758031E-001
 0.672152411740522E-001
 0.693146826246124E-001
 0.221962078393496E-004
 0.407786374427434E-003
 0.229477473989051E-003
 0.216850815291689E-003
 0.383221044184669E-003
 0.169066883290762E-004
 0.514206289871321E-003
 0.426240345984090E-003
 0.192847891085280E-001
 0.561946442607709E-001
 0.192737078794052E-001
 0.182144157264171E-001
 0.190447118281467E-009
 0.146534099894652E-009
 0.748957820256214E-011
 0.156292031756150E-009
 0.434335682118474E-004
 0.919658792850499E-003
 0.736126820395151E-003
 0.813246077546990E-003
 0.645893053425366E-001
 0.318091903422907E-001
 0.807524955961954E-001
 0.671163360466679E-001
 0.292776534272942E-003
 0.366211745534608E-002
 0.256265101933965E-003
 0.263958242687783E-003
 0.128018040236935E-005
 0.112887486868119E-008
 0.251852354372334E-008
 0.221875863420194E-008
 0.452199239318461E-006
 0.178508282227358E-005
 0.562982139653146E-004
 0.147459237454562E-005
 0.337374750437429E-004
 0.593090891884044E-003