# vtk DataFile Version 3.0
Unstructured Grid
ASCII
DATASET UNSTRUCTURED_GRID
FIELD FieldData 1
TIME 1 1 float
  0.189375E+02
POINTS         2588 double
 0.000000000000000E+000 0.000000000000000E+000 0.000000000000000E+000
 0.100000000000000E+001 0.000000000000000E+000 0.000000000000000E+000
 0.100000000000000E+001 0.100000000000000E+001 0.000000000000000E+000
 0.000000000000000E+000 0.100000000000000E+001 0.000000000000000E+000
 0.125000000000000E+000 0.250000000000000E+000 0.000000000000000E+000
 0.375000000000000E+000 0.250000000000000E+000 0.000000000000000E+000
 0.375000000000000E+000 0.750000000000000E+000 0.000000000000000E+000
 0.125000000000000E+000 0.750000000000000E+000 0.000000000000000E+000
 0.625000000000000E+000 0.250000000000000E+000 0.000000000000000E+000
 0.875000000000000E+000 0.250000000000000E+000 0.000000000000000E+000
 0.875000000000000E+000 0.750000000000000E+000 0.000000000000000E+000
 0.625000000000000E+000 0.750000000000000E+000 0.000000000000000E+000
 0.100000000000000E+001 0.500000000000000E+000 0.000000000000000E+000
 0.000000000000000E+000 0.500000000000000E+000 0.000000000000000E+000
 0.500000000000000E+000 0.000000000000000E+000 0.000000000000000E+000
 0.125000000000000E+000 0.500000000000000E+000 0.000000000000000E+000
 0.000000000000000E+000 0.750000000000000E+000 0.000000000000000E+000
 0.000000000000000E+000 0.250000000000000E+000 0.000000000000000E+000
 0.000000000000000E+000 0.875000000000000E+000 0.000000000000000E+000
 0.000000000000000E+000 0.125000000000000E+000 0.000000000000000E+000
 0.000000000000000E+000 0.812500000000000E+000 0.000000000000000E+000
 0.625000000000000E-001 0.812500000000000E+000 0.000000000000000E+000
 0.125000000000000E+000 0.375000000000000E+000 0.000000000000000E+000
 0.000000000000000E+000 0.375000000000000E+000 0.000000000000000E+000
 0.125000000000000E+000 0.625000000000000E+000 0.000000000000000E+000
 0.312500000000000E-001 0.781250000000000E+000 0.000000000000000E+000
 0.000000000000000E+000 0.625000000000000E+000 0.000000000000000E+000
 0.781250000000000E-001 0.765625000000000E+000 0.000000000000000E+000
 0.364583333333333E-001 0.744791666666667E+000 0.000000000000000E+000
 0.000000000000000E+000 0.687500000000000E+000 0.000000000000000E+000
 0.312500000000000E-001 0.843750000000000E+000 0.000000000000000E+000
 0.500000000000000E+000 0.100000000000000E+001 0.000000000000000E+000
 0.117915518486872E+000 0.805415518486872E+000 0.000000000000000E+000
 0.531250000000000E-001 0.896875000000000E+000 0.000000000000000E+000
 0.128125000000000E+000 0.862500000000000E+000 0.000000000000000E+000
 0.852352799227800E-001 0.850726351351351E+000 0.000000000000000E+000
 0.250000000000000E+000 0.750000000000000E+000 0.000000000000000E+000
 0.000000000000000E+000 0.937500000000000E+000 0.000000000000000E+000
 0.250000000000000E+000 0.100000000000000E+001 0.000000000000000E+000
 0.125000000000000E+000 0.100000000000000E+001 0.000000000000000E+000
 0.559955578663221E-001 0.864626829113867E+000 0.000000000000000E+000
 0.201656717908302E+000 0.819893736067327E+000 0.000000000000000E+000
 0.181985294117647E-001 0.906250000000000E+000 0.000000000000000E+000
 0.157158578892515E+000 0.827852167423944E+000 0.000000000000000E+000
 0.173219498992632E+000 0.789273026175030E+000 0.000000000000000E+000
 0.190370748034901E+000 0.885171153579592E+000 0.000000000000000E+000
 0.163362285670037E+000 0.862539079232243E+000 0.000000000000000E+000
 0.145689809422689E+000 0.911060496538305E+000 0.000000000000000E+000
 0.260169562085505E+000 0.921822264266383E+000 0.000000000000000E+000
 0.999952720236157E-001 0.900131729869707E+000 0.000000000000000E+000
 0.181336648989602E+000 0.921080529637299E+000 0.000000000000000E+000
 0.187500000000000E+000 0.100000000000000E+001 0.000000000000000E+000
 0.625000000000000E-001 0.100000000000000E+001 0.000000000000000E+000
 0.391044682108720E-001 0.939348618511729E+000 0.000000000000000E+000
 0.987901813178879E-001 0.953497897705852E+000 0.000000000000000E+000
 0.127430470763290E+000 0.938015442955272E+000 0.000000000000000E+000
 0.735147503821561E-001 0.927156548383149E+000 0.000000000000000E+000
 0.187500000000000E+000 0.750000000000000E+000 0.000000000000000E+000
 0.937500000000000E-001 0.986976003387646E+000 0.000000000000000E+000
 0.647068558612996E-001 0.964310770745732E+000 0.000000000000000E+000
 0.287348941263244E-001 0.975594752089430E+000 0.000000000000000E+000
 0.140548246895551E+000 0.780148342865875E+000 0.000000000000000E+000
 0.625000000000000E-001 0.656250000000000E+000 0.000000000000000E+000
 0.885416666666667E-001 0.718750000000000E+000 0.000000000000000E+000
 0.125000000000000E+000 0.687500000000000E+000 0.000000000000000E+000
 0.418778153153153E-001 0.701096693284193E+000 0.000000000000000E+000
 0.130000591648319E-001 0.718750000000000E+000 0.000000000000000E+000
 0.886787280701754E-001 0.682017543859649E+000 0.000000000000000E+000
 0.324539302647226E+000 0.874753539998500E+000 0.000000000000000E+000
 0.220842706957930E+000 0.911928394103011E+000 0.000000000000000E+000
 0.255656705174793E+000 0.856653769033302E+000 0.000000000000000E+000
 0.230240640268531E+000 0.957679342037283E+000 0.000000000000000E+000
 0.247273788001812E+000 0.889974781313083E+000 0.000000000000000E+000
 0.287822583654814E+000 0.892090285129540E+000 0.000000000000000E+000
 0.375000000000000E+000 0.100000000000000E+001 0.000000000000000E+000
 0.312500000000000E+000 0.100000000000000E+001 0.000000000000000E+000
 0.296339471848887E+000 0.927737349884604E+000 0.000000000000000E+000
 0.272754945277513E+000 0.963602684427479E+000 0.000000000000000E+000
 0.218750000000000E+000 0.100000000000000E+001 0.000000000000000E+000
 0.156250000000000E+000 0.970185411869689E+000 0.000000000000000E+000
 0.193067439035452E+000 0.962879965079150E+000 0.000000000000000E+000
 0.366022419631980E+000 0.930828672570042E+000 0.000000000000000E+000
 0.331917636626289E+000 0.912676918057824E+000 0.000000000000000E+000
 0.218750000000000E+000 0.780050991479902E+000 0.000000000000000E+000
 0.270314960374965E+000 0.802399429390985E+000 0.000000000000000E+000
 0.239019213447470E+000 0.823051378525603E+000 0.000000000000000E+000
 0.312500000000000E+000 0.750000000000000E+000 0.000000000000000E+000
 0.297176692881550E+000 0.838764170920897E+000 0.000000000000000E+000
 0.316491084060399E+000 0.796393690767677E+000 0.000000000000000E+000
 0.343750000000000E+000 0.770680188507291E+000 0.000000000000000E+000
 0.409908719410776E+000 0.836702006091634E+000 0.000000000000000E+000
 0.362591033297072E+000 0.817958948082628E+000 0.000000000000000E+000
 0.401086171766563E+000 0.789875587437421E+000 0.000000000000000E+000
 0.371341896832358E+000 0.864966336467817E+000 0.000000000000000E+000
 0.333452116450771E+000 0.839580614538559E+000 0.000000000000000E+000
 0.625000000000000E+000 0.500000000000000E+000 0.000000000000000E+000
 0.497245004128187E+000 0.796002674320860E+000 0.000000000000000E+000
 0.375000000000000E+000 0.625000000000000E+000 0.000000000000000E+000
 0.448383797292392E+000 0.805208595628784E+000 0.000000000000000E+000
 0.410140101146819E+000 0.755482168792868E+000 0.000000000000000E+000
 0.466643384891561E+000 0.767852445997818E+000 0.000000000000000E+000
 0.476967665188550E+000 0.732032311892081E+000 0.000000000000000E+000
 0.540753556856103E+000 0.747012385328872E+000 0.000000000000000E+000
 0.490851671729155E+000 0.896339978179292E+000 0.000000000000000E+000
 0.457989751325779E+000 0.856193010026991E+000 0.000000000000000E+000
 0.477617377726983E+000 0.826097842173926E+000 0.000000000000000E+000
 0.546397010943533E+000 0.849506899903764E+000 0.000000000000000E+000
 0.514994092174850E+000 0.829026377565149E+000 0.000000000000000E+000
 0.557956128164421E+000 0.797467818442289E+000 0.000000000000000E+000
 0.513053884697208E+000 0.866316721845202E+000 0.000000000000000E+000
 0.531719458287368E+000 0.903340824708691E+000 0.000000000000000E+000
 0.750000000000000E+000 0.100000000000000E+001 0.000000000000000E+000
 0.503122841217304E+000 0.947490703764094E+000 0.000000000000000E+000
 0.428509525448068E+000 0.913846660476909E+000 0.000000000000000E+000
 0.625000000000000E+000 0.100000000000000E+001 0.000000000000000E+000
 0.410139362032626E+000 0.877461197108989E+000 0.000000000000000E+000
 0.393550593852374E+000 0.908666538512922E+000 0.000000000000000E+000
 0.455853425536278E+000 0.891464570133054E+000 0.000000000000000E+000
 0.465565809489837E+000 0.931223943045515E+000 0.000000000000000E+000
 0.430803944763131E+000 0.957152995135723E+000 0.000000000000000E+000
 0.361862549463301E+000 0.897277191535820E+000 0.000000000000000E+000
 0.281250000000000E+000 0.768022264880110E+000 0.000000000000000E+000
 0.528016132294562E+000 0.779515446907155E+000 0.000000000000000E+000
 0.582435077211395E+000 0.760961532636893E+000 0.000000000000000E+000
 0.594258447236559E+000 0.718750000000000E+000 0.000000000000000E+000
 0.513210480866922E+000 0.721000388231171E+000 0.000000000000000E+000
 0.625000000000000E+000 0.625000000000000E+000 0.000000000000000E+000
 0.293099715520438E+000 0.681007179427844E+000 0.000000000000000E+000
 0.625000000000000E+000 0.687500000000000E+000 0.000000000000000E+000
 0.375000000000000E+000 0.500000000000000E+000 0.000000000000000E+000
 0.588365877190365E+000 0.682207614843486E+000 0.000000000000000E+000
 0.544806337802789E+000 0.700097114505632E+000 0.000000000000000E+000
 0.473117607324743E+000 0.654334216996401E+000 0.000000000000000E+000
 0.507976816774602E+000 0.678758937084175E+000 0.000000000000000E+000
 0.471770128441152E+000 0.693345422145358E+000 0.000000000000000E+000
 0.540484989053884E+000 0.595274872726202E+000 0.000000000000000E+000
 0.434924684287812E+000 0.717988149163748E+000 0.000000000000000E+000
 0.438762107036035E+000 0.672676424045669E+000 0.000000000000000E+000
 0.514022824851611E+000 0.633041943182225E+000 0.000000000000000E+000
 0.375000000000000E+000 0.687500000000000E+000 0.000000000000000E+000
[...]
CELL_DATA         5036
SCALARS tdens double 1
LOOKUP_TABLE default
 0.149678319700544E-002
 0.255303406021246E-002
 0.181935524030492E-002
 0.188326613981508E-002
 0.164240264118861E-001
 0.135016049289515E-001
 0.141088645971673E-001
 0.143176839191313E-001
 0.875097408113386E-001
 0.971395508435200E-001
 0.969731112417888E-001
 0.962556478658833E-001
 0.306167417802285E-002
 0.237215959368834E-002
 0.284426283088930E-002
 0.273510017237191E-002
 0.432014966992677E-002
 0.371689410468190E-002
 0.326675714362704E-002
 0.369538643491269E-002
 0.575507032437734E-003
 0.535970609890147E-003
 0.436160886940709E-003
 0.479066547498935E-003
 0.752776065412701E-001
 0.699195805295540E-001
 0.954630281985294E-001
 0.743206909438080E-001
 0.719630881710609E-001
 0.783193554681991E-001
 0.715862705026521E-001
 0.726547861531132E-001
 0.130921708073248E+000
 0.136006718218132E+000
 0.141719242159851E+000
 0.138024951735376E+000
 0.588570653545540E-002
 0.550149109750757E-002
 0.510091281689125E-002
 0.551927581685882E-002
 0.103192961619546E-001
 0.118216038392814E-001
 0.118759726044205E-001
 0.115284124010669E-001
 0.201490930314912E-001
 0.237749261097607E-001
 0.220116686794570E-001
 0.217289003611740E-001
 0.127180962318670E-001
 0.714607984005372E-002
 0.482404571925656E-002
 0.704328629502691E-002
 0.146897996943294E+000
 0.105530022579870E+000
 0.124230358986953E+000
 0.116994116594361E+000
 0.493489031889368E-001
 0.426443483740803E-001
 0.436550507858956E-001
 0.442720839489153E-001
 0.131626387582737E+000
 0.120955835366708E+000
 0.153773657425118E+000
 0.128408738619016E+000
 0.206151862648821E-001
 0.232377955532748E-001
 0.200871571268316E-001
 0.208070293142433E-001
 0.992395381153846E-002
 0.203960266801016E-001
 0.145913947516194E-001
 0.156385918771621E-001
 0.241867883716579E-002
 0.231390051575122E-002
 0.225549125372035E-002
 0.229300107349674E-002
 0.770373899336782E-001
 0.783407460287518E-001
 0.727905445050020E-001
 0.773704372105675E-001
 0.240565705624580E-001
 0.274730964602175E-001
 0.211383254822063E-001
 0.246764217587412E-001
 0.175646269637219E-002
 0.173533238320325E-002
 0.177684575748010E-002
 0.175812856437206E-002
 0.113531371097484E+000
 0.112172505773303E+000
 0.111596298537942E+000
 0.112608869182464E+000
 0.198395780139311E-002
 0.178026226604801E-002
 0.183278040988894E-002
 0.184828719390787E-002
 0.681439279997098E-001
 0.621880120510344E-001
 0.579312720799926E-001
 0.611719304510508E-001
 0.754118551779177E-001
 0.752362703282254E-001
 0.677731416098800E-001
 0.736117549026492E-001
 0.261819439276869E-002
 0.429390603806449E-002
 0.317109514320008E-002
 0.320881101298783E-002
 0.338919409350610E-001
 0.232633277748018E-001
 0.298141722280813E-001
 0.299260059634594E-001
 0.659393305826517E-001
 0.469484789481978E-001
 0.633586247650786E-001
 0.618652592425748E-001
 0.118962301991287E-001
 0.100658861269134E-001
 0.104942768109487E-001
 0.107121713039552E-001
 0.688728932209446E-002
 0.593679344604948E-002
 0.813304053291395E-002
 0.686894638055376E-002
 0.637879053550227E-002
 0.789573908580603E-002
 0.113964240962580E-001
 0.791905864064391E-002
 0.292461972259889E-002
 0.135190909058536E-002
 0.109756740735561E-002
 0.161102504142463E-002
 0.105914582464680E-001
 0.135857067806543E-001
 0.228710498515167E-001
 0.166593230008993E-001
 0.263660120253179E-002
 0.206626213026413E-002
 0.184398940190729E-002
 0.219227887821643E-002
 0.172042989303006E-002
 0.176803074908817E-002
 0.171953533138785E-002
 0.173617715165992E-002
 0.262189155679472E-002
 0.231251371429326E-002
 0.215278277214957E-002
 0.235955866329612E-002
 0.171286442822134E-002
 0.157411075601368E-002
 0.171447453676572E-002
 0.166901576440118E-002
 0.133334758439535E-002
 0.137059725863093E-002
 0.248184557271593E-002
 0.159384517520870E-002
 0.174018069204241E-002
 0.189670441042452E-002
 0.181528955961582E-002
 0.180708109546420E-002
 0.213454433899354E-002
 0.188681994350750E-002
 0.206775370357096E-002
 0.201343916937604E-002
 0.385256244453152E-001
 0.423663832895610E-001
 0.523119097087254E-001
 0.484844909632553E-001
 0.170219983338004E-002
 0.179116900661831E-002
 0.173121783093173E-002
 0.173689260671004E-002
 0.176096392161356E-002
 0.199583374838246E-002
 0.181884904021854E-002
 0.184910223181639E-002
 0.169207411024654E-002
 0.167108152807773E-002
 0.167463572632632E-002
 0.167620461423544E-002
 0.132777941240675E-002
 0.161165819468624E-002
 0.161848755716664E-002
 0.150110100106983E-002
 0.377872865158087E-001
 0.389114031944602E-001
 0.403062991549087E-001
 0.391183930304928E-001
 0.206747664220101E-002
 0.243115360963475E-002
 0.189374995745844E-002
 0.209405212583699E-002
 0.545546832218202E-002
 0.414216323039540E-002
 0.102017362698037E-001
 0.626997556930810E-002
 0.150970660162564E-002
 0.179907568262734E-002
 0.165841522961232E-002
 0.164528850395164E-002
 0.248629918765140E-002
 0.241946996524073E-002
 0.381720582700515E-002
 0.277443554547842E-002
 0.424265067818888E-002
 0.324726452209079E-002
 0.317952958555727E-002
 0.347652259822552E-002
 0.655535704666065E-002
 0.378915924458055E-002
 0.689901582116385E-002
 0.581371862897304E-002
 0.156981981130201E-002
 0.174605427543197E-002
 0.181940169661372E-002
 0.167107049369863E-002
 0.213376563140098E-002
 0.201176495279711E-002
 0.187770215814371E-002
 0.200651685531857E-002
 0.224347438501932E-002
 0.276714371121427E-002
 0.271958361266679E-002
 0.255960977931282E-002
 0.134093470821680E-002
 0.142223394466272E-002
 0.152129029702368E-002
 0.144474710854020E-002
 0.409623957436506E-001
 0.284344474579332E-001
 0.514395026247846E-001
 0.357803208433672E-001
 0.183398188781940E-001
 0.192785382794210E-001
 0.288021323993663E-001
 0.201125091232983E-001
 0.232232339737453E-002
 0.263726402644204E-002
 0.218358565735583E-002
 0.237077599403364E-002
 0.180085544747905E-001
 0.162495905184441E-001
 0.218889949146191E-001
 0.182174208712040E-001
 0.328954036946071E-002
 0.337692215647452E-002
 0.512695151772665E-002
 0.375780616729354E-002
 0.147546534863104E-001
 0.197024855652646E-001
 0.721164301396385E-002
 0.148436952080458E-001
 0.199576650554496E-002
 0.189540128539427E-002
 0.241863341405353E-002
 0.210506131874674E-002
 0.110747091731022E-002
 0.136667110514886E-002
 0.126046434845316E-002
 0.124045003088033E-002
 0.252629473271891E-002
 0.349238629269067E-002
 0.433609333390920E-002
 0.343580822425339E-002
 0.460231953038311E-001
 0.342398914567653E-001
 0.229610583115055E-001
 0.356671984964097E-001
 0.724919437342011E-001
 0.866729270834910E-001
 0.873905768000663E-001
 0.792202754841706E-001
 0.126236707844316E-001
 0.243098767551369E-001
 0.404852117120782E-001
 0.329837668163306E-001
 0.566775378136036E-001
 0.680684256449479E-001
 0.738372650575470E-001
 0.644740893677586E-001
 0.173578232018835E-001
 0.270202104257482E-001
 0.234915800635169E-001
 0.236880301446075E-001
 0.491178804163429E-001
 0.239465656515300E-001
 0.349152566313079E-001
 0.324416705220134E-001
 0.692754699595434E-002
 0.119591495260988E-001
 0.121849793766241E-001
 0.107384546047734E-001
 0.797296897990239E-002
 0.657149811015556E-002
 0.113284744285311E-001
 0.816379600039870E-002
 0.222977488758215E-002
 0.281176300062395E-002
 0.291477622310157E-002
 0.266082089639136E-002
 0.981179933728218E-002
 0.128090048245238E-001
 0.144308681489495E-001
 0.126007432626158E-001
 0.275226064121360E-002
 0.217567750717459E-002
 0.208147775709524E-002
 0.226879576901506E-002
 0.551211350831746E-002
 0.484319742838518E-002
 0.354295083722702E-002
 0.459257041075075E-002
 0.589619571216989E-002
 0.371018477015181E-002
 0.490988167536494E-002
 0.488171492191019E-002
 0.899616699538185E-002
 0.127369345286080E-001
 0.122910609745231E-001
 0.117915516077357E-001
 0.201839455907196E-001
 0.269854652560050E-001
 0.218839813634323E-001
 0.221898247083245E-001
 0.188332739855353E-002
 0.161360936684297E-002
 0.180159909657104E-002
 0.179084701008134E-002
 0.665318706370141E-002
 0.105939722055267E-001
 0.833508980623453E-002
 0.810210064751260E-002
 0.921117929076404E-003
 0.102689410253449E-002
 0.846080280501834E-003
 0.940070170642439E-003
 0.120454819830106E-002
 0.112868447714065E-002
 0.103604092228647E-002
 0.109557240543354E-002
 0.150973501431630E-002
 0.124774107873926E-002
 0.129924290864563E-002
 0.135924186660457E-002
 0.168100891593381E-002
 0.148936128930564E-002
 0.135440429420635E-002
 0.151453088563091E-002
 0.698455458005842E-002
 0.571313556750536E-002
 0.559491310508565E-002
 0.605194071336049E-002
 0.830669003006528E-003
 0.756015772878567E-003
 0.604972700545721E-003
 0.704350424323460E-003
 0.270102676776955E-002
 0.278279312170921E-002
 0.221392333665767E-002
 0.251127134125032E-002
 0.235487610276850E-002
 0.185714567796151E-002
 0.183251019458579E-002
 0.199961331621001E-002
 0.141054526525418E-002
 0.167364343174270E-002
 0.175272108146021E-002
 0.158880277764824E-002
 0.693454033819409E-001
 0.479422981675851E-001
 0.570642362541029E-001
 0.650701234652209E-001
 0.143623521760788E-001
 0.258530999573939E-001
 0.855707722142471E-002
 0.201734447617445E-001
 0.178876034236735E-002
 0.127515103287681E-002
 0.151433502919407E-002
 0.150100244056662E-002
 0.123170728521707E-002
 0.138150684956168E-002
 0.114685778149736E-002
 0.121756706995993E-002
 0.768548506448707E-003
 0.877159830819935E-003
 0.614222762901893E-003
 0.728668925332048E-003
 0.152465358017340E-002
 0.127893966301492E-002
 0.123512481563569E-002
 0.135118783525064E-002
 0.110129661124752E-002
 0.113714289514622E-002
 0.915807616791566E-003
 0.102855404659766E-002
 0.992295066570641E-003
 0.869198080785875E-003
 0.109141424234195E-002
 0.992467054349807E-003
 0.428148610509055E-001
 0.218589955955661E-001
 0.123126368056401E-001
 0.231982761095715E-001
 0.342120988359279E-001
 0.255572156893934E-001
 0.387183581117696E-001
 0.293242821193969E-001
 0.205727099658564E-002
 0.161241204396305E-002
 0.253890004574781E-002
 0.202773564094231E-002
 0.288624593225304E-002
 0.364289998522640E-002
 0.407969820875689E-002
 0.346572986994455E-002
 0.145254258072891E-002
 0.113495230705162E-002
 0.124226197108589E-002
 0.129653805849174E-002
 0.125118276996504E-002
 0.149517022107459E-002
 0.147786324220332E-002
 0.138847443168903E-002
 0.143666933596020E-002
 0.163672629089527E-002
 0.154583483281923E-002
 0.154193691650884E-002
 0.168944580135647E-002
 0.153045221596479E-002
 0.185420707734250E-002
 0.168032139314048E-002
 0.167908921606450E-002
 0.169387736566191E-002
 0.170350569735718E-002
 0.169189789846561E-002
 0.161768763776191E-002
 0.167635580484256E-002
 0.168264987014397E-002
 0.165608646372840E-002
 0.166568487373662E-002
 0.162227351622808E-002
 0.165943291223489E-002
 0.165253998919455E-002
 0.166404921099676E-002
 0.165873821312865E-002
 0.160710280633995E-002
 0.164565640579623E-002
 0.909424443971785E-003
 0.110675619980233E-002
 0.938281980591766E-003
 0.833147801709844E-003
 0.125662787458121E-002
 0.152429438054730E-002
 0.183616947603959E-002
 0.152603988931264E-002
 0.589389394752364E-001
 0.546671894826382E-001
 0.497123573062787E-001
 0.550843963338168E-001
 0.162896310354500E-001
 0.180413430210700E-001
 0.132245076883891E-001
 0.161408598109148E-001
 0.251862862041445E-001
 0.195123378399029E-001
 0.181001206889177E-001
 0.198388542750694E-001
 0.833146578704691E-001
 0.775427197650944E-001
 0.743587740158732E-001
 0.809343995020338E-001
 0.285357806203840E-001
 0.385377092593214E-001
 0.323492831527401E-001
 0.329047480411244E-001
 0.442519088030555E-002
 0.492657259793593E-002
 0.521323175967869E-002
 0.481493493751078E-002
 0.400856977962062E-002
 0.361425744478626E-002
 0.455793671443304E-002
 0.400928900144924E-002
 0.273179363517727E-001
 0.168166377721955E-001
 0.177094289427022E-001
 0.185793338966346E-001
 0.465916271848341E-001
 0.547897819341747E-001
 0.392213940245644E-001
 0.450345581569672E-001
 0.134443983537681E-001
 0.180878244944523E-001
 0.156274414629732E-001
 0.152019369306910E-001
 0.204004924194877E-001
 0.243880894931498E-001
 0.272985631846889E-001
 0.242002557495525E-001
 0.282997817894999E-001
 0.232217956714679E-001
 0.287137717004083E-001
 0.276077777081112E-001
 0.193797176056769E-001
 0.221546130304520E-001
 0.199168776025304E-001
 0.202156380337886E-001
 0.115884224860711E-001
 0.885815038064455E-002
 0.105696366491650E-001
 0.103643177560914E-001
 0.336170805152411E-001
 0.347514894811809E-001
 0.415210529549046E-001
 0.351905922810474E-001
 0.802263924010566E-002
 0.838982735201576E-002
 0.994401807499230E-002
 0.871017783663167E-002
 0.553604157385833E-002
 0.363232165212194E-002
 0.352298173769459E-002
 0.403130108482661E-002
 0.116792399974233E-001
 0.991640001419799E-002
 0.142815064626135E-001
 0.115004703180545E-001
 0.350348282744580E-002
 0.249983658812458E-002
 0.307764250852705E-002
 0.298650679380662E-002
 0.736319839453353E-002
 0.722505668080053E-002
 0.619876211577365E-002
 0.677784019323303E-002
 0.402735621159001E-002
 0.600172075513800E-002
 0.515345214794017E-002
 0.484770757706489E-002
 0.104511513415998E-001
 0.633972764537339E-002
 0.777733053233083E-002
 0.801236596149830E-002
 0.755783656433624E-001
 0.745674732947169E-001
 0.763009963399591E-001
 0.755250029878307E-001
 0.374126256609918E-001
 0.386776106908980E-001
 0.326533814584631E-001
 0.366338623723361E-001
 0.437545023873918E-001
 0.465449463527489E-001
 0.512868229307174E-001
 0.465304284103714E-001
 0.210580347406746E-001
 0.267825320412396E-001
 0.266575894946662E-001
 0.253590559041020E-001
 0.882440449696663E-001
 0.849195613104457E-001
 0.824818220520754E-001
 0.852587630702092E-001
 0.551690616499269E-001
 0.747671601726809E-001
 0.642066646578943E-001
 0.586756937235941E-001
 0.668235534286807E-001
 0.738413874042744E-001
 0.711240533884519E-001
 0.720440877743988E-001
 0.384135464723586E-001
 0.529532591539334E-001
 0.454129671602986E-001
 0.465285348882217E-001
 0.418876551060167E-001
 0.593806868932889E-001
 0.471408197824945E-001
 0.488012554080311E-001
 0.785332622413785E-001
 0.771029222007143E-001
 0.671564226438450E-001
 0.776018332869792E-001
 0.806157674677005E-001
 0.828285295843916E-001
 0.810661380575773E-001
 0.827155662985169E-001
 0.109193225659819E+000
 0.100909053881233E+000
 0.107067932171669E+000
 0.106897915993610E+000
 0.540154169499871E-001
 0.709949340908695E-001
 0.617343830162741E-001
 0.640489314513241E-001
 0.794741983970929E-001
 0.800741955163573E-001
 0.778604107089142E-001
 0.788817074031621E-001
 0.739968133625428E-001
 0.749627970133842E-001
 0.768663834757980E-001
 0.752519367546592E-001
 0.741123830898219E-001
 0.731304257379012E-001
 0.762460937271807E-001
 0.749445240762604E-001
 0.709363383265240E-001
 0.717821568350384E-001
 0.733809901812328E-001
 0.710974469290923E-001
 0.742140176469682E-001
 0.754868503597311E-001
 0.760703220976689E-001
 0.757927445351985E-001
 0.724521468444387E-001
 0.733437429248208E-001
 0.764431686303616E-001
 0.733439433491569E-001
 0.584313665401113E-001
 0.656927598266748E-001
 0.575762306794699E-001
 0.589689244982090E-001
 0.602063643301250E-001
 0.685638355517941E-001
 0.670408318953174E-001
 0.668584656423883E-001
 0.583506152637217E-001
 0.598873881056752E-001
 0.503512016095776E-001
 0.572802999416022E-001
 0.769805706215712E-001
 0.772489068685781E-001
 0.741562582037595E-001
 0.756757067995832E-001
 0.831807557234080E-001
 0.819045792736750E-001
 0.875547588602325E-001
 0.836117422455559E-001
 0.561622925576752E-001
 0.565819230802754E-001
 0.636249090535034E-001
 0.573498976178755E-001
 0.371012480653712E-001
 0.316828292387720E-001
 0.375757376770989E-001
 0.365538016777047E-001
 0.739548953104506E-001
 0.665239683065109E-001
 0.662583438782091E-001
 0.679753308980701E-001
 0.604232323012906E-001
 0.642667371323835E-001
 0.689758724020356E-001
 0.634241042483294E-001
 0.210693925074110E+000
 0.176191523930820E+000
 0.194508771378610E+000
 0.197016200922239E+000
 0.177249957558121E+000
 0.157302178526677E+000
 0.171485056216604E+000
 0.172275960122218E+000
 0.110361097558494E+000
 0.120209367678347E+000
 0.112461708201157E+000
 0.113761976630449E+000
 0.730337470264225E-001
 0.710609995407692E-001
 0.779495178032929E-001
 0.733474650085722E-001
 0.132837551849446E+000
 0.147317372035276E+000
 0.135365319157853E+000
 0.141029409606587E+000
 0.105319131841314E+000
 0.956612843150369E-001
 0.103178867030260E+000
 0.102954953040808E+000
 0.806488520891696E-001
 0.780856455194621E-001
 0.786376941872294E-001
 0.799617900231046E-001
 0.791659417790791E-001
 0.786821589148851E-001
 0.723662362549864E-001
 0.777971196136087E-001
 0.117608802256218E+000
 0.114667215617688E+000
 0.113508731542967E+000
 0.114663447103936E+000
 0.982606500365269E-001
 0.107980723444614E+000
 0.977009532257742E-001
 0.998339753281321E-001
 0.825326412486282E-001
 0.902828688073980E-001
 0.894604601882917E-001
 0.871632525235938E-001
 0.904841779731557E-001
 0.843449111915645E-001
 0.894186637458914E-001
 0.886896361817778E-001
 0.144420351098140E+000
 0.172741922504740E+000
 0.135677916884924E+000
 0.155681531954683E+000
 0.790711727329034E-001
 0.847568632110460E-001
 0.724469908850406E-001
 0.806562702553979E-001
 0.279980237659863E-001
 0.291266402037472E-001
 0.250161256538974E-001
 0.277020211941978E-001
 0.929908464272968E-001
 0.107103910033975E+000
 0.936536668807516E-001
 0.952649294347977E-001
 0.952341748319896E-001
 0.102511668575847E+000
 0.923054023195381E-001
 0.977435045032958E-001
 0.513350241405382E-001
 0.508477914918066E-001
 0.438462783396341E-001
 0.498620689950608E-001
 0.836008190347921E-001
 0.833550185354104E-001
 0.900309362773506E-001
 0.845347113846378E-001
 0.575871194831157E-001
 0.563135249041656E-001
 0.637063232947581E-001
 0.583527860863629E-001
 0.888774068326505E-001
 0.847376591292841E-001
 0.917057715067837E-001
 0.872966361671613E-001
 0.807914251902650E-001
 0.841426945562520E-001
 0.758245302625488E-001
 0.809738026300153E-001
 0.801071410297941E-001
 0.734328103641533E-001
 0.654482941824193E-001
 0.721654674289526E-001
 0.111283486362777E+000
 0.117168426736423E+000
 0.129017705748439E+000
 0.120259734240541E+000
 0.943345586013089E-001
 0.105262955356290E+000
 0.108143642087831E+000
 0.105279956562547E+000
 0.760778152756313E-001
 0.849334907929693E-001
 0.839226914242995E-001
 0.828793620062809E-001
 0.128554331580167E+000
 0.137131627941160E+000
 0.122125555930572E+000
 0.131105871417922E+000
 0.124511390966489E+000
 0.140510346925622E+000
 0.136862904549194E+000
 0.133094989616263E+000
 0.546256148127445E-001
 0.667866751796524E-001
 0.860283014724989E-001
 0.732872528489477E-001
 0.658214463689028E-001
 0.678640479349455E-001
 0.598542748150304E-001
 0.653290632721878E-001
 0.228419089753889E+000
 0.195940840732918E+000
 0.201503244673114E+000
 0.209083545567499E+000
 0.957504838358540E-001
 0.109946565108216E+000
 0.103893111105578E+000
 0.101831291223534E+000
 0.266422409414841E-001
 0.253698916215057E-001
 0.282902998901701E-001
 0.261929412819692E-001
 0.784601233112439E-001
 0.644751308906629E-001
 0.715291746091643E-001
 0.725684234373568E-001
 0.436979609720716E-001
 0.527468279358244E-001
 0.511841797651319E-001
 0.497013186553090E-001
 0.525982065815122E-001
 0.435266871001888E-001
 0.516591748706708E-001
 0.506446921593529E-001
 0.592501512768147E-001
 0.678425138339302E-001
 0.608929744754624E-001
 0.609718691247465E-001
 0.293221277493405E-001
 0.303854219737720E-001
 0.277751464141511E-001
 0.291384535797483E-001
 0.436927068336907E-001
 0.504877472960921E-001
 0.513319820197199E-001
 0.498698942453803E-001
 0.648460748707015E-001
 0.581416526658895E-001
 0.660471274963479E-001
 0.644126978066677E-001
 0.429101288848835E-001
 0.497987832463440E-001
 0.436722511914644E-001
 0.443564038811929E-001
 0.369593244100304E-001
 0.326542837495856E-001
 0.321603960254411E-001
 0.332504325309299E-001
 0.310491821547176E-001
 0.323126507813665E-001
 0.370992186402080E-001
 0.326151782498473E-001
 0.425688996383264E-001
 0.500912993883356E-001