# vtk DataFile Version 3.0
Unstructured Grid
ASCII
DATASET UNSTRUCTURED_GRID
FIELD FieldData 1
TIME 1 1 float
  0.400312E+02
POINTS         2588 double
 0.000000000000000E+000 0.000000000000000E+000 0.000000000000000E+000
 0.100000000000000E+001 0.000000000000000E+000 0.000000000000000E+000
 0.100000000000000E+001 0.100000000000000E+001 0.000000000000000E+000
 0.000000000000000E+000 0.100000000000000E+001 0.000000000000000E+000
 0.125000000000000E+000 0.250000000000000E+000 0.000000000000000E+000
 0.375000000000000E+000 0.250000000000000E+000 0.000000000000000E+000
 0.375000000000000E+000 0.750000000000000E+000 0.000000000000000E+000
 0.125000000000000E+000 0.750000000000000E+000 0.000000000000000E+000
 0.625000000000000E+000 0.250000000000000E+000 0.000000000000000E+000
 0.875000000000000E+000 0.250000000000000E+000 0.000000000000000E+000
 0.875000000000000E+000 0.750000000000000E+000 0.000000000000000E+000
 0.625000000000000E+000 0.750000000000000E+000 0.000000000000000E+000
 0.100000000000000E+001 0.500000000000000E+000 0.000000000000000E+000
 0.000000000000000E+000 0.500000000000000E+000 0.000000000000000E+000
 0.500000000000000E+000 0.000000000000000E+000 0.000000000000000E+000
 0.125000000000000E+000 0.500000000000000E+000 0.000000000000000E+000
 0.000000000000000E+000 0.750000000000000E+000 0.000000000000000E+000
 0.000000000000000E+000 0.250000000000000E+000 0.000000000000000E+000
 0.000000000000000E+000 0.875000000000000E+000 0.000000000000000E+000
 0.000000000000000E+000 0.125000000000000E+000 0.000000000000000E+000
 0.000000000000000E+000 0.812500000000000E+000 0.000000000000000E+000
 0.625000000000000E-001 0.812500000000000E+000 0.000000000000000E+000
 0.125000000000000E+000 0.375000000000000E+000 0.000000000000000E+000
 0.000000000000000E+000 0.375000000000000E+000 0.000000000000000E+000
 0.125000000000000E+000 0.625000000000000E+000 0.000000000000000E+000
 0.312500000000000E-001 0.781250000000000E+000 0.000000000000000E+000
 0.000000000000000E+000 0.625000000000000E+000 0.000000000000000E+000
 0.781250000000000E-001 0.765625000000000E+000 0.000000000000000E+000
 0.364583333333333E-001 0.744791666666667E+000 0.000000000000000E+000
 0.000000000000000E+000 0.687500000000000E+000 0.000000000000000E+000
 0.312500000000000E-001 0.843750000000000E+000 0.000000000000000E+000
 0.500000000000000E+000 0.100000000000000E+001 0.000000000000000E+000
 0.117915518486872E+000 0.805415518486872E+000 0.000000000000000E+000
 0.531250000000000E-001 0.896875000000000E+000 0.000000000000000E+000
 0.128125000000000E+000 0.862500000000000E+000 0.000000000000000E+000
 0.852352799227800E-001 0.850726351351351E+000 0.000000000000000E+000
 0.250000000000000E+000 0.750000000000000E+000 0.000000000000000E+000
 0.000000000000000E+000 0.937500000000000E+000 0.000000000000000E+000
 0.250000000000000E+000 0.100000000000000E+001 0.000000000000000E+000
 0.125000000000000E+000 0.100000000000000E+001 0.000000000000000E+000
 0.559955578663221E-001 0.864626829113867E+000 0.000000000000000E+000
 0.201656717908302E+000 0.819893736067327E+000 0.000000000000000E+000
 0.181985294117647E-001 0.906250000000000E+000 0.000000000000000E+000
 0.157158578892515E+000 0.827852167423944E+000 0.000000000000000E+000
 0.173219498992632E+000 0.789273026175030E+000 0.000000000000000E+000
 0.190370748034901E+000 0.885171153579592E+000 0.000000000000000E+000
 0.163362285670037E+000 0.862539079232243E+000 0.000000000000000E+000
 0.145689809422689E+000 0.911060496538305E+000 0.000000000000000E+000
 0.260169562085505E+000 0.921822264266383E+000 0.000000000000000E+000
 0.999952720236157E-001 0.900131729869707E+000 0.000000000000000E+000
 0.181336648989602E+000 0.921080529637299E+000 0.000000000000000E+000
 0.187500000000000E+000 0.100000000000000E+001 0.000000000000000E+000
 0.625000000000000E-001 0.100000000000000E+001 0.000000000000000E+000
 0.391044682108720E-001 0.939348618511729E+000 0.000000000000000E+000
 0.987901813178879E-001 0.953497897705852E+000 0.000000000000000E+000
 0.127430470763290E+000 0.938015442955272E+000 0.000000000000000E+000
 0.735147503821561E-001 0.927156548383149E+000 0.000000000000000E+000
 0.187500000000000E+000 0.750000000000000E+000 0.000000000000000E+000
 0.937500000000000E-001 0.986976003387646E+000 0.000000000000000E+000
 0.647068558612996E-001 0.964310770745732E+000 0.000000000000000E+000
 0.287348941263244E-001 0.975594752089430E+000 0.000000000000000E+000
 0.140548246895551E+000 0.780148342865875E+000 0.000000000000000E+000
 0.625000000000000E-001 0.656250000000000E+000 0.000000000000000E+000
 0.885416666666667E-001 0.718750000000000E+000 0.000000000000000E+000
 0.125000000000000E+000 0.687500000000000E+000 0.000000000000000E+000
 0.418778153153153E-001 0.701096693284193E+000 0.000000000000000E+000
 0.130000591648319E-001 0.718750000000000E+000 0.000000000000000E+000
 0.886787280701754E-001 0.682017543859649E+000 0.000000000000000E+000
 0.324539302647226E+000 0.874753539998500E+000 0.000000000000000E+000
 0.220842706957930E+000 0.911928394103011E+000 0.000000000000000E+000
 0.255656705174793E+000 0.856653769033302E+000 0.000000000000000E+000
 0.230240640268531E+000 0.957679342037283E+000 0.000000000000000E+000
 0.247273788001812E+000 0.889974781313083E+000 0.000000000000000E+000
 0.287822583654814E+000 0.892090285129540E+000 0.000000000000000E+000
 0.375000000000000E+000 0.100000000000000E+001 0.000000000000000E+000
 0.312500000000000E+000 0.100000000000000E+001 0.000000000000000E+000
 0.296339471848887E+000 0.927737349884604E+000 0.000000000000000E+000
 0.272754945277513E+000 0.963602684427479E+000 0.000000000000000E+000
 0.218750000000000E+000 0.100000000000000E+001 0.000000000000000E+000
 0.156250000000000E+000 0.970185411869689E+000 0.000000000000000E+000
 0.193067439035452E+000 0.962879965079150E+000 0.000000000000000E+000
 0.366022419631980E+000 0.930828672570042E+000 0.000000000000000E+000
 0.331917636626289E+000 0.912676918057824E+000 0.000000000000000E+000
 0.218750000000000E+000 0.780050991479902E+000 0.000000000000000E+000
 0.270314960374965E+000 0.802399429390985E+000 0.000000000000000E+000
 0.239019213447470E+000 0.823051378525603E+000 0.000000000000000E+000
 0.312500000000000E+000 0.750000000000000E+000 0.000000000000000E+000
 0.297176692881550E+000 0.838764170920897E+000 0.000000000000000E+000
 0.316491084060399E+000 0.796393690767677E+000 0.000000000000000E+000
 0.343750000000000E+000 0.770680188507291E+000 0.000000000000000E+000
 0.409908719410776E+000 0.836702006091634E+000 0.000000000000000E+000
 0.362591033297072E+000 0.817958948082628E+000 0.000000000000000E+000
 0.401086171766563E+000 0.789875587437421E+000 0.000000000000000E+000
 0.371341896832358E+000 0.864966336467817E+000 0.000000000000000E+000
 0.333452116450771E+000 0.839580614538559E+000 0.000000000000000E+000
 0.625000000000000E+000 0.500000000000000E+000 0.000000000000000E+000
 0.497245004128187E+000 0.796002674320860E+000 0.000000000000000E+000
 0.375000000000000E+000 0.625000000000000E+000 0.000000000000000E+000
 0.448383797292392E+000 0.805208595628784E+000 0.000000000000000E+000
 0.410140101146819E+000 0.755482168792868E+000 0.000000000000000E+000
 0.466643384891561E+000 0.767852445997818E+000 0.000000000000000E+000
 0.476967665188550E+000 0.732032311892081E+000 0.000000000000000E+000
 0.540753556856103E+000 0.747012385328872E+000 0.000000000000000E+000
 0.490851671729155E+000 0.896339978179292E+000 0.000000000000000E+000
 0.457989751325779E+000 0.856193010026991E+000 0.000000000000000E+000
 0.477617377726983E+000 0.826097842173926E+000 0.000000000000000E+000
 0.546397010943533E+000 0.849506899903764E+000 0.000000000000000E+000
 0.514994092174850E+000 0.829026377565149E+000 0.000000000000000E+000
 0.557956128164421E+000 0.797467818442289E+000 0.000000000000000E+000
 0.513053884697208E+000 0.866316721845202E+000 0.000000000000000E+000
 0.531719458287368E+000 0.903340824708691E+000 0.000000000000000E+000
 0.750000000000000E+000 0.100000000000000E+001 0.000000000000000E+000
 0.503122841217304E+000 0.947490703764094E+000 0.000000000000000E+000
 0.428509525448068E+000 0.913846660476909E+000 0.000000000000000E+000
 0.625000000000000E+000 0.100000000000000E+001 0.000000000000000E+000
 0.410139362032626E+000 0.877461197108989E+000 0.000000000000000E+000
 0.393550593852374E+000 0.908666538512922E+000 0.000000000000000E+000
 0.455853425536278E+000 0.891464570133054E+000 0.000000000000000E+000
 0.465565809489837E+000 0.931223943045515E+000 0.000000000000000E+000
 0.430803944763131E+000 0.957152995135723E+000 0.000000000000000E+000
 0.361862549463301E+000 0.897277191535820E+000 0.000000000000000E+000
 0.281250000000000E+000 0.768022264880110E+000 0.000000000000000E+000
 0.528016132294562E+000 0.779515446907155E+000 0.000000000000000E+000
 0.582435077211395E+000 0.760961532636893E+000 0.000000000000000E+000
 0.594258447236559E+000 0.718750000000000E+000 0.000000000000000E+000
 0.513210480866922E+000 0.721000388231171E+000 0.000000000000000E+000
 0.625000000000000E+000 0.625000000000000E+000 0.000000000000000E+000
 0.293099715520438E+000 0.681007179427844E+000 0.000000000000000E+000
 0.625000000000000E+000 0.687500000000000E+000 0.000000000000000E+000
 0.375000000000000E+000 0.500000000000000E+000 0.000000000000000E+000
 0.588365877190365E+000 0.682207614843486E+000 0.000000000000000E+000
 0.544806337802789E+000 0.700097114505632E+000 0.000000000000000E+000
 0.473117607324743E+000 0.654334216996401E+000 0.000000000000000E+000
 0.507976816774602E+000 0.678758937084175E+000 0.000000000000000E+000
 0.471770128441152E+000 0.693345422145358E+000 0.000000000000000E+000
 0.540484989053884E+000 0.595274872726202E+000 0.000000000000000E+000
 0.434924684287812E+000 0.717988149163748E+000 0.000000000000000E+000
 0.438762107036035E+000 0.672676424045669E+000 0.000000000000000E+000
 0.514022824851611E+000 0.633041943182225E+000 0.000000000000000E+000
 0.375000000000000E+000 0.687500000000000E+000 0.000000000000000E+000
[...]
CELL_DATA         5036
SCALARS tdens double 1
LOOKUP_TABLE default
 0.210266302054169E-004
 0.673872141272653E-004
 0.295753150337758E-004
 0.287127226230615E-004
 0.283809346899404E-002
 0.173648438196804E-002
 0.190446333853728E-002
 0.189254870294389E-002
 0.835456058501026E-001
 0.999599332723315E-001
 0.100970037701599E+000
 0.998000296808597E-001
 0.245089526038549E-004
 0.129219900931149E-004
 0.204253706497995E-004
 0.198009128913572E-004
 0.480431846271914E-004
 0.390240923218188E-004
 0.278496534983168E-004
 0.356457862247273E-004
 0.285113058608411E-005
 0.257426188055320E-005
 0.121574042385337E-005
 0.211715355697599E-005
 0.421497833709860E-001
 0.378257333270064E-001
 0.737492997855662E-001
 0.403411818847557E-001
 0.839456562364050E-001
 0.954873723059420E-001
 0.802323522504313E-001
 0.835153953274445E-001
 0.136944812189902E+000
 0.150947404754534E+000
 0.156173130486071E+000
 0.153219364661999E+000
 0.194257364167332E-003
 0.172290417593950E-003
 0.143442672447238E-003
 0.175586835428858E-003
 0.843445095864318E-003
 0.119356486491660E-002
 0.119614111253093E-002
 0.117202755179309E-002
 0.476294240515709E-002
 0.714644394798061E-002
 0.601939474464712E-002
 0.585055579474343E-002
 0.191338194660808E-002
 0.883445189534454E-003
 0.260572851429732E-003
 0.704358983653051E-003
 0.146373372395947E+000
 0.926413233845703E-001
 0.112329921516976E+000
 0.102079849224332E+000
 0.297248954848345E-001
 0.187145990393390E-001
 0.215167025845075E-001
 0.209520442234482E-001
 0.119839085224570E+000
 0.114029997768888E+000
 0.158886993966803E+000
 0.117114595161801E+000
 0.970253813076829E-003
 0.136080662896164E-002
 0.876912661009703E-003
 0.961680590786496E-003
 0.156508868160246E-002
 0.121345793699681E-001
 0.464345828336092E-002
 0.562464103749676E-002
 0.180376818280624E-004
 0.164654588002889E-004
 0.169852847051716E-004
 0.168576895922396E-004
 0.963440813313927E-001
 0.962308278240678E-001
 0.864917315110308E-001
 0.962735105647341E-001
 0.784788094012588E-002
 0.109805052777481E-001
 0.567291975248928E-002
 0.792228759696119E-002
 0.501348731310893E-005
 0.466746613616263E-005
 0.494485060536745E-005
 0.485542735986892E-005
 0.130639211827108E+000
 0.128858717314251E+000
 0.126140387502477E+000
 0.129012275225381E+000
 0.670479380088555E-005
 0.523280981191773E-005
 0.530815349748664E-005
 0.566355275845055E-005
 0.113685636740993E+000
 0.105889683959533E+000
 0.101224193796932E+000
 0.104034507294576E+000
 0.865966666896725E-001
 0.905264280727340E-001
 0.708246922462543E-001
 0.861847439125356E-001
 0.145683827398308E-004
 0.539801922987401E-004
 0.316629731680040E-004
 0.296252702376122E-004
 0.105006937815300E-001
 0.408524514238744E-002
 0.931800144553079E-002
 0.942437505375733E-002
 0.431938466617139E-001
 0.188301713041242E-001
 0.423062794331543E-001
 0.410817769907977E-001
 0.126804382280110E-002
 0.807228007339813E-003
 0.912957659430049E-003
 0.909867436829062E-003
 0.358548179444810E-003
 0.247970921065771E-003
 0.484909822559024E-003
 0.344612332931265E-003
 0.434670030185536E-003
 0.861161145019146E-003
 0.210617711132919E-002
 0.705003097464156E-003
 0.327824715199817E-004
 0.121746288976503E-004
 0.299244597794535E-005
 0.719964254021393E-005
 0.211167244026767E-002
 0.941644063251905E-002
 0.129314691976169E-001
 0.109591413783457E-001
 0.183246955989845E-004
 0.166087537959139E-004
 0.120366179843314E-004
 0.161094069551080E-004
 0.440137201623631E-005
 0.472682257992233E-005
 0.453643494288779E-005
 0.457493292019371E-005
 0.388056207636925E-004
 0.257692949378063E-004
 0.238344971948418E-004
 0.282304965320658E-004
 0.563652363190797E-005
 0.485628666679955E-005
 0.518421320986814E-005
 0.520407973550534E-005
 0.298080420503860E-005
 0.795117283168346E-005
 0.914905248548732E-005
 0.357147185956210E-005
 0.437396151029972E-005
 0.518839441937326E-005
 0.493324787922274E-005
 0.466593864828388E-005
 0.758769995211802E-005
 0.543330278966725E-005
 0.635527625853164E-005
 0.639614061068903E-005
 0.318406921885846E-001
 0.429408545387334E-001
 0.511322950573409E-001
 0.490519170373028E-001
 0.477469449724560E-005
 0.553806785489032E-005
 0.500212589222914E-005
 0.506666020824528E-005
 0.538304484193627E-005
 0.724593349439858E-005
 0.625654054617549E-005
 0.605760624109719E-005
 0.444874041166224E-005
 0.445639621918228E-005
 0.439282542092901E-005
 0.441017907473373E-005
 0.485264867392771E-005
 0.725467748453491E-005
 0.790631299344878E-005
 0.676448384083712E-005
 0.760286867298372E-002
 0.947933287082446E-002
 0.950936785070185E-002
 0.933388917885294E-002
 0.120920418693450E-004
 0.214977908913397E-004
 0.104471624449053E-004
 0.133658343548712E-004
 0.629750338967568E-004
 0.250977763791717E-002
 0.100112510596441E-001
 0.543960173411260E-002
 0.486831309863203E-005
 0.766044394102323E-005
 0.694244200953791E-005
 0.639954372261591E-005
 0.120011617686111E-004
 0.957517784781659E-005
 0.324748256777070E-004
 0.132227779582884E-004
 0.129017429858781E-003
 0.583627533958762E-004
 0.536271785104521E-004
 0.639800829080289E-004
 0.334241557209139E-003
 0.576034353578727E-004
 0.377603930166692E-003
 0.279538229552713E-003
 0.500762801903678E-005
 0.615354345182758E-005
 0.735959497018861E-005
 0.599132114396094E-005
 0.894574944069455E-005
 0.915688185087030E-005
 0.702333697318697E-005
 0.844559180559678E-005
 0.139255202326497E-004
 0.247350748955731E-004
 0.276402252853140E-004
 0.225549951694405E-004
 0.422093306541677E-005
 0.438098093662636E-005
 0.591611627208055E-005
 0.474745367520426E-005
 0.485202748535185E-001
 0.333494531996470E-001
 0.604704599164725E-001
 0.386792887195719E-001
 0.573918504481893E-002
 0.716572367891585E-002
 0.141868437870620E-001
 0.669702921184139E-002
 0.116464850928340E-004
 0.201412823560795E-004
 0.118885979010968E-004
 0.135917406199845E-004
 0.410252151090475E-002
 0.344821792046772E-002
 0.673290071529939E-002
 0.405610900427871E-002
 0.550268930420139E-004
 0.507571857555009E-004
 0.212051966978489E-003
 0.680057247876012E-004
 0.953403887495891E-002
 0.213190952321273E-001
 0.156458074820865E-002
 0.119129912261716E-001
 0.148958827614213E-004
 0.126842318637027E-004
 0.236447052104122E-004
 0.159124407493838E-004
 0.272456089193351E-005
 0.400782650348799E-005
 0.358465678550578E-005
 0.341777832498295E-005
 0.952110494789476E-005
 0.146193166890558E-004
 0.279513362534540E-004
 0.176862710758958E-004
 0.381859089405694E-001
 0.207074146284963E-001
 0.108017545931061E-001
 0.214443746938902E-001
 0.823943010007635E-001
 0.102367802652420E+000
 0.100030478525180E+000
 0.915471636095123E-001
 0.145967607419327E-001
 0.272434165068333E-001
 0.462371039467103E-001
 0.368907646712175E-001
 0.480117103861148E-001
 0.674468694737284E-001
 0.798454773558715E-001
 0.640149663608421E-001
 0.377341419173894E-002
 0.112797019561846E-001
 0.768603604209151E-002
 0.863800643616307E-002
 0.392874034903808E-001
 0.113811553160025E-001
 0.242119352681125E-001
 0.234474315250276E-001
 0.433862946735621E-003
 0.180770632968130E-002
 0.179599728258263E-002
 0.160633541154264E-002
 0.659978762120826E-003
 0.417022264679429E-003
 0.164917012595465E-002
 0.684651528051725E-003
 0.180367915527554E-004
 0.336021458834476E-004
 0.338730581312020E-004
 0.296431244948239E-004
 0.765782512431868E-003
 0.172559078773090E-002
 0.213149222793791E-002
 0.169585307534745E-002
 0.264261742903812E-004
 0.130058314718270E-004
 0.148139652635110E-004
 0.167326066886811E-004
 0.224687858734682E-003
 0.168027093334524E-003
 0.640521298846771E-004
 0.161156818617402E-003
 0.278523331164353E-003
 0.777583784966736E-004
 0.182583126925205E-003
 0.186927221862376E-003
 0.765943142180030E-003
 0.185276174509073E-002
 0.157530415144722E-002
 0.168154425509823E-002
 0.492041857710166E-002
 0.886423252650712E-002
 0.546461895683222E-002
 0.551350405588826E-002
 0.933188251442760E-005
 0.698846845113164E-005
 0.102972980744871E-004
 0.895935190338399E-005
 0.312038108038581E-003
 0.112435978262555E-002
 0.534685998275492E-003
 0.544913933247078E-003
 0.199175217038434E-005
 0.278161370694090E-005
 0.177393834207854E-005
 0.214818264623557E-005
 0.339114282268428E-005
 0.320660947407698E-005
 0.244041128013858E-005
 0.292580596958542E-005
 0.621099039388671E-005
 0.426127296496547E-005
 0.419232932136499E-005
 0.473460448434783E-005
 0.922103652691366E-005
 0.618563721648539E-005
 0.543689694371016E-005
 0.658915519013444E-005
 0.306248597262702E-003
 0.125480942255527E-003
 0.172742437744363E-003
 0.182247654073949E-003
 0.151579725465640E-005
 0.127460847854059E-005
 0.685360677066241E-006
 0.106755875901926E-005
 0.311383577898894E-004
 0.340236215362067E-004
 0.178923698083684E-004
 0.280185507341957E-004
 0.214719023617999E-004
 0.117936703547612E-004
 0.104914632451868E-004
 0.127828652730823E-004
 0.583518534093428E-005
 0.889745891528315E-005
 0.982069722187188E-005
 0.833381680219469E-005
 0.795977446711540E-001
 0.545571043516761E-001
 0.657958370361496E-001
 0.736788132977018E-001
 0.136780179025531E-001
 0.219433900058545E-001
 0.409872752175780E-002
 0.147126180059758E-001
 0.798462042703860E-005
 0.372496628230062E-005
 0.565192900926322E-005
 0.543809408918253E-005
 0.400588346861813E-005
 0.475413763371187E-005
 0.303984096728096E-005
 0.377370499182223E-005
 0.130881893044045E-005
 0.167795873638553E-005
 0.700027683644197E-006
 0.112468742618273E-005
 0.743405964779481E-005
 0.493112233939710E-005
 0.444845852073496E-005
 0.529086661728646E-005
 0.323772198682980E-005
 0.349960589229819E-005
 0.208190764815210E-005
 0.292501613330897E-005
 0.232987868087834E-005
 0.187230992316290E-005
 0.323760848186857E-005
 0.240699452418078E-005
 0.469413607802389E-001
 0.209552089769145E-001
 0.132387544690271E-001
 0.296244765241062E-001
 0.294263669493993E-001
 0.227517257912413E-001
 0.374534287053353E-001
 0.290272531121411E-001
 0.600029625172167E-005
 0.373542054350968E-005
 0.721434029238015E-005
 0.572622385965336E-005
 0.235567827404429E-004
 0.406031509947060E-004
 0.648629854105371E-004
 0.437684515891112E-004
 0.294917876689739E-005
 0.139503076711856E-005
 0.186725466805665E-005
 0.205005534924594E-005
 0.203044888874605E-005
 0.320945387713624E-005
 0.326587735266443E-005
 0.263912082513401E-005
 0.266151301409995E-005
 0.379591282981700E-005
 0.340794844030535E-005
 0.327844733903381E-005
 0.395669206198667E-005
 0.311749183440828E-005
 0.475019524551996E-005
 0.381874360096286E-005
 0.435419933989020E-005
 0.431631744819394E-005
 0.447221122930847E-005
 0.438776136491823E-005
 0.407204987592359E-005
 0.454533454230375E-005
 0.459331354443427E-005
 0.439375917322269E-005
 0.444266782882509E-005
 0.405264188363166E-005
 0.431030703549297E-005
 0.431213534028573E-005
 0.410965114774092E-005
 0.424271619490743E-005
 0.389721801634359E-005
 0.409388982221309E-005
 0.468767721891920E-005
 0.179356643660386E-005
 0.111011871907176E-005
 0.133133621573095E-005
 0.289534350130253E-005
 0.428386293140324E-005
 0.988309867019846E-005
 0.484438093623183E-005
 0.546192166861194E-001
 0.451078556080824E-001
 0.357495271891299E-001
 0.456079590053507E-001
 0.270822486773035E-002
 0.327394295332709E-002
 0.140447808193756E-002
 0.269797689216194E-002
 0.674081432955414E-002
 0.309171885049644E-002
 0.285402542184501E-002
 0.317449857883501E-002
 0.941407305114216E-001
 0.877296657080133E-001
 0.785961927214758E-001
 0.922633739174809E-001
 0.111633663205103E-001
 0.223077727056831E-001
 0.144081461918282E-001
 0.144969255381098E-001
 0.630280421976426E-004
 0.109318120238155E-003
 0.929743638327207E-004
 0.815836468715487E-004
 0.533938838546025E-004
 0.545990996079935E-004
 0.102956845590956E-003
 0.611644534643734E-004
 0.126286896786381E-001
 0.402520932644120E-002
 0.497925598248537E-002
 0.461366199510317E-002
 0.324390835812236E-001
 0.450924621376970E-001
 0.221889445005014E-001
 0.304713710972915E-001
 0.143414160791643E-002
 0.327589887500261E-002
 0.202776393322376E-002
 0.196711585403647E-002
 0.501337079227682E-002
 0.751184126620636E-002
 0.881385593919698E-002
 0.748569617541716E-002
 0.861903264092206E-002
 0.557232098290466E-002
 0.935258225965630E-002
 0.896842489298042E-002
 0.232433028626169E-002
 0.303277421912422E-002
 0.187034837687293E-002
 0.236991192843889E-002
 0.557241341290458E-003
 0.306603979367592E-003
 0.611477139287588E-003
 0.469138167592644E-003
 0.145054933362160E-001
 0.167248468184018E-001
 0.247592665432412E-001
 0.158349229859212E-001
 0.260610631698378E-003
 0.425542345654273E-003
 0.579317683458829E-003
 0.436657159958391E-003
 0.254324088104750E-003
 0.699734787315541E-004
 0.711587692909425E-004
 0.833507442833150E-004
 0.110079743751928E-002
 0.784229618486623E-003
 0.212116593455689E-002
 0.108549528225643E-002
 0.360313631006133E-004
 0.165984047458897E-004
 0.312345772778010E-004
 0.263259941137311E-004
 0.309887282107170E-003
 0.199317275030049E-003
 0.141387769544250E-003
 0.183043475184210E-003
 0.796632833694648E-004
 0.269564427600546E-003
 0.156575838621950E-003
 0.155353819931916E-003
 0.115847248197994E-002
 0.313408842533162E-003
 0.585304824507207E-003
 0.561444397799676E-003
 0.965995639907842E-001
 0.942862538919284E-001
 0.972175027296096E-001
 0.960664419318523E-001
 0.141509677702361E-001
 0.147761768889252E-001
 0.835979963464516E-002
 0.139392654877189E-001
 0.257304651541707E-001
 0.304911783578408E-001
 0.376741572188483E-001
 0.302567640885963E-001
 0.330810301948624E-002
 0.702795004870065E-002
 0.663902376926478E-002
 0.656898526761139E-002
 0.102545105316510E+000
 0.102135747246726E+000
 0.993443689252026E-001
 0.101154017769817E+000
 0.613727815244978E-001
 0.833910504075716E-001
 0.692321168895693E-001
 0.651710403538025E-001
 0.717596735059070E-001
 0.899057630196679E-001
 0.838525393811554E-001
 0.863936726495863E-001
 0.211465306156425E-001
 0.428559014803277E-001
 0.300827844381317E-001
 0.314415051564444E-001
 0.284008741613428E-001
 0.551225574974505E-001
 0.350886682324085E-001
 0.350200373012090E-001
 0.891734773876676E-001
 0.828766665443934E-001
 0.731229582827835E-001
 0.819535095975795E-001
 0.979328913598530E-001
 0.101400408344709E+000
 0.100531114630694E+000
 0.101528667087972E+000
 0.122136885624142E+000
 0.107220299949486E+000
 0.117204675764251E+000
 0.118595173003242E+000
 0.453465942803478E-001
 0.775395157612228E-001
 0.597671643628325E-001
 0.618430287102045E-001
 0.973729390443954E-001
 0.100033903265615E+000
 0.980032570876841E-001
 0.982521608807575E-001
 0.937486137934506E-001
 0.955744359249163E-001
 0.981693541468623E-001
 0.956478608667487E-001
 0.908702795370833E-001
 0.807887789105020E-001
 0.928501143349139E-001
 0.910912589534284E-001
 0.858587970957074E-001
 0.802086352537629E-001
 0.910795725805766E-001
 0.843954366201047E-001
 0.931173292702827E-001
 0.966028100775647E-001
 0.963827964108824E-001
 0.966505149120847E-001
 0.873333333075839E-001
 0.909854305605504E-001
 0.963313352817534E-001
 0.900011810036358E-001
 0.530887988178015E-001
 0.697321865739937E-001
 0.502724129659376E-001
 0.525708073412437E-001
 0.560948504430692E-001
 0.771468457913998E-001
 0.727076639907132E-001
 0.736197494514827E-001
 0.509917886629566E-001
 0.550699321815320E-001
 0.359039423735907E-001
 0.514347659277063E-001
 0.795421976498602E-001
 0.929095244794531E-001
 0.806438419513106E-001
 0.804769399014252E-001
 0.964242180875565E-001
 0.821958731666041E-001
 0.861049058481247E-001
 0.845396479378459E-001
 0.437944335431832E-001
 0.463789212033660E-001
 0.605579047063419E-001
 0.463785867817174E-001
 0.149234181608699E-001
 0.100914211926554E-001
 0.164692339351573E-001
 0.156179852148571E-001
 0.901264482523266E-001
 0.720217892926863E-001
 0.706507518550102E-001
 0.728052058584171E-001
 0.575931874499813E-001
 0.666725555002598E-001
 0.785583400815126E-001
 0.645790567980469E-001
 0.263037178713644E+000
 0.224320223088617E+000
 0.245244928683536E+000
 0.247329222827365E+000
 0.190536662452423E+000
 0.164266949312212E+000
 0.185914689111328E+000
 0.185994607885898E+000
 0.977962281207262E-001
 0.114231038611517E+000
 0.101063426475126E+000
 0.101907323626487E+000
 0.764723952673338E-001
 0.771223595748147E-001
 0.908288917183466E-001
 0.771524389052799E-001
 0.155432485482687E+000
 0.182894407243597E+000
 0.171926504793833E+000
 0.176541173528216E+000
 0.941430081021763E-001
 0.829971196630550E-001
 0.871456247158242E-001
 0.901497769720719E-001
 0.955671032135185E-001
 0.937139901395646E-001
 0.808401099492704E-001
 0.946832180125201E-001
 0.951524268038252E-001
 0.923502117330024E-001
 0.797349667625338E-001
 0.923720321441498E-001
 0.135704115400379E+000
 0.131280297229918E+000
 0.130498349587542E+000
 0.131017213345444E+000
 0.863588816484401E-001
 0.107841564384122E+000
 0.813891397479706E-001
 0.865176281961026E-001
 0.677631240241092E-001
 0.698005123784431E-001
 0.758368746083824E-001
 0.717247918606718E-001
 0.959133673831699E-001
 0.969455937205220E-001
 0.885873294035492E-001
 0.945902367414782E-001
 0.164248980999010E+000
 0.198617815050085E+000
 0.150677765775245E+000
 0.178533726820778E+000
 0.526627548335193E-001
 0.603737848632419E-001
 0.547966834493700E-001
 0.558075486065043E-001
 0.815276122432355E-002
 0.942936329754337E-002
 0.658024311993054E-002
 0.797901629940760E-002
 0.104610857089968E+000
 0.111681338094593E+000
 0.105317272356307E+000
 0.105838558187035E+000
 0.100493234666666E+000
 0.101045321274795E+000
 0.102936846230122E+000
 0.103084962291708E+000
 0.365007147840322E-001
 0.346588632271207E-001
 0.236370489438909E-001
 0.349461608452671E-001
 0.985263121658975E-001
 0.986557488906525E-001
 0.998981784054286E-001
 0.992733352004651E-001
 0.446284363126137E-001
 0.436883478377473E-001
 0.604837056308349E-001
 0.450522225250230E-001
 0.102531178998730E+000
 0.996023872313528E-001
 0.101080460584220E+000
 0.100963401050152E+000
 0.926218123620668E-001
 0.957458340604626E-001
 0.778974152465202E-001
 0.932504243900452E-001
 0.803456550214183E-001
 0.646043629062026E-001
 0.521594940428951E-001
 0.636779651409267E-001
 0.118618040576135E+000
 0.119212220968865E+000
 0.130663109346780E+000
 0.124127896768007E+000
 0.104494284360024E+000
 0.103774200168860E+000
 0.109704666478477E+000
 0.107270042925692E+000
 0.775390923485391E-001
 0.963936379189958E-001
 0.909250442336939E-001
 0.909520789777539E-001
 0.121085683174373E+000
 0.131942769826671E+000
 0.115347110198780E+000
 0.125264884077053E+000
 0.120052238243788E+000
 0.136918096489364E+000
 0.133712695473365E+000
 0.128093063231100E+000
 0.234257307638357E-001
 0.317248667249496E-001
 0.683035686956390E-001
 0.350175790583141E-001
 0.615979704752756E-001
 0.624376924687325E-001
 0.460759704191226E-001
 0.612853439418005E-001
 0.242555012579956E+000
 0.200996270311873E+000
 0.209958312575450E+000
 0.217257719440587E+000
 0.107208765366023E+000
 0.114820773290695E+000
 0.113378201867693E+000
 0.110901355903737E+000
 0.347640968200866E-002
 0.408109436584418E-002
 0.519905759249481E-002
 0.410696562808885E-002
 0.784950699203367E-001
 0.513596991309690E-001
 0.676446206059086E-001
 0.685019113538991E-001
 0.156024235947353E-001
 0.273530867598025E-001
 0.236717832089173E-001
 0.228608930909795E-001
 0.274989275476223E-001
 0.156081837474346E-001
 0.283293335909360E-001
 0.270772860381675E-001
 0.457520391182931E-001
 0.626993569552443E-001
 0.468623979372042E-001
 0.460692115046405E-001
 0.522871673209195E-002
 0.509634615295442E-002
 0.369341608185633E-002
 0.487904811893277E-002
 0.185458682340778E-001
 0.297414687780918E-001
 0.296046265253114E-001
 0.292887908592956E-001
 0.639347180100775E-001
 0.499614274161475E-001
 0.691979750679956E-001
 0.644879391814203E-001
 0.232423006963773E-001
 0.337244852378123E-001
 0.232960815068436E-001
 0.236479370750440E-001
 0.114128205265269E-001
 0.695946035870125E-002
 0.763080562944013E-002
 0.759909308297073E-002
 0.104607258717339E-001
 0.124844605242590E-001
 0.169801712995655E-001
 0.118474473912858E-001
 0.173452949200603E-001
 0.281575229355708E-001