# vtk DataFile Version 3.0
Unstructured Grid
ASCII
DATASET UNSTRUCTURED_GRID
FIELD FieldData 1
TIME 1 1 float
  0.375000E+01
POINTS         2588 double
 0.000000000000000E+000 0.000000000000000E+000 0.000000000000000E+000
 0.100000000000000E+001 0.000000000000000E+000 0.000000000000000E+000
 0.100000000000000E+001 0.100000000000000E+001 0.000000000000000E+000
 0.000000000000000E+000 0.100000000000000E+001 0.000000000000000E+000
 0.125000000000000E+000 0.250000000000000E+000 0.000000000000000E+000
 0.375000000000000E+000 0.250000000000000E+000 0.000000000000000E+000
 0.375000000000000E+000 0.750000000000000E+000 0.000000000000000E+000
 0.125000000000000E+000 0.750000000000000E+000 0.000000000000000E+000
 0.625000000000000E+000 0.250000000000000E+000 0.000000000000000E+000
 0.875000000000000E+000 0.250000000000000E+000 0.000000000000000E+000
 0.875000000000000E+000 0.750000000000000E+000 0.000000000000000E+000
 0.625000000000000E+000 0.750000000000000E+000 0.000000000000000E+000
 0.100000000000000E+001 0.500000000000000E+000 0.000000000000000E+000
 0.000000000000000E+000 0.500000000000000E+000 0.000000000000000E+000
 0.500000000000000E+000 0.000000000000000E+000 0.000000000000000E+000
 0.125000000000000E+000 0.500000000000000E+000 0.000000000000000E+000
 0.000000000000000E+000 0.750000000000000E+000 0.000000000000000E+000
 0.000000000000000E+000 0.250000000000000E+000 0.000000000000000E+000
 0.000000000000000E+000 0.875000000000000E+000 0.000000000000000E+000
 0.000000000000000E+000 0.125000000000000E+000 0.000000000000000E+000
 0.000000000000000E+000 0.812500000000000E+000 0.000000000000000E+000
 0.625000000000000E-001 0.812500000000000E+000 0.000000000000000E+000
 0.125000000000000E+000 0.375000000000000E+000 0.000000000000000E+000
 0.000000000000000E+000 0.375000000000000E+000 0.000000000000000E+000
 0.125000000000000E+000 0.625000000000000E+000 0.000000000000000E+000
 0.312500000000000E-001 0.781250000000000E+000 0.000000000000000E+000
 0.000000000000000E+000 0.625000000000000E+000 0.000000000000000E+000
 0.781250000000000E-001 0.765625000000000E+000 0.000000000000000E+000
 0.364583333333333E-001 0.744791666666667E+000 0.000000000000000E+000
 0.000000000000000E+000 0.687500000000000E+000 0.000000000000000E+000
 0.312500000000000E-001 0.843750000000000E+000 0.000000000000000E+000
 0.500000000000000E+000 0.100000000000000E+001 0.000000000000000E+000
 0.117915518486872E+000 0.805415518486872E+000 0.000000000000000E+000
 0.531250000000000E-001 0.896875000000000E+000 0.000000000000000E+000
 0.128125000000000E+000 0.862500000000000E+000 0.000000000000000E+000
 0.852352799227800E-001 0.850726351351351E+000 0.000000000000000E+000
 0.250000000000000E+000 0.750000000000000E+000 0.000000000000000E+000
 0.000000000000000E+000 0.937500000000000E+000 0.000000000000000E+000
 0.250000000000000E+000 0.100000000000000E+001 0.000000000000000E+000
 0.125000000000000E+000 0.100000000000000E+001 0.000000000000000E+000
 0.559955578663221E-001 0.864626829113867E+000 0.000000000000000E+000
 0.201656717908302E+000 0.819893736067327E+000 0.000000000000000E+000
 0.181985294117647E-001 0.906250000000000E+000 0.000000000000000E+000
 0.157158578892515E+000 0.827852167423944E+000 0.000000000000000E+000
 0.173219498992632E+000 0.789273026175030E+000 0.000000000000000E+000
 0.190370748034901E+000 0.885171153579592E+000 0.000000000000000E+000
 0.163362285670037E+000 0.862539079232243E+000 0.000000000000000E+000
 0.145689809422689E+000 0.911060496538305E+000 0.000000000000000E+000
 0.260169562085505E+000 0.921822264266383E+000 0.000000000000000E+000
 0.999952720236157E-001 0.900131729869707E+000 0.000000000000000E+000
 0.181336648989602E+000 0.921080529637299E+000 0.000000000000000E+000
 0.187500000000000E+000 0.100000000000000E+001 0.000000000000000E+000
 0.625000000000000E-001 0.100000000000000E+001 0.000000000000000E+000
 0.391044682108720E-001 0.939348618511729E+000 0.000000000000000E+000
 0.987901813178879E-001 0.953497897705852E+000 0.000000000000000E+000
 0.127430470763290E+000 0.938015442955272E+000 0.000000000000000E+000
 0.735147503821561E-001 0.927156548383149E+000 0.000000000000000E+000
 0.187500000000000E+000 0.750000000000000E+000 0.000000000000000E+000
 0.937500000000000E-001 0.986976003387646E+000 0.000000000000000E+000
 0.647068558612996E-001 0.964310770745732E+000 0.000000000000000E+000
 0.287348941263244E-001 0.975594752089430E+000 0.000000000000000E+000
 0.140548246895551E+000 0.780148342865875E+000 0.000000000000000E+000
 0.625000000000000E-001 0.656250000000000E+000 0.000000000000000E+000
 0.885416666666667E-001 0.718750000000000E+000 0.000000000000000E+000
 0.125000000000000E+000 0.687500000000000E+000 0.000000000000000E+000
 0.418778153153153E-001 0.701096693284193E+000 0.000000000000000E+000
 0.130000591648319E-001 0.718750000000000E+000 0.000000000000000E+000
 0.886787280701754E-001 0.682017543859649E+000 0.000000000000000E+000
 0.324539302647226E+000 0.874753539998500E+000 0.000000000000000E+000
 0.220842706957930E+000 0.911928394103011E+000 0.000000000000000E+000
 0.255656705174793E+000 0.856653769033302E+000 0.000000000000000E+000
 0.230240640268531E+000 0.957679342037283E+000 0.000000000000000E+000
 0.247273788001812E+000 0.889974781313083E+000 0.000000000000000E+000
 0.287822583654814E+000 0.892090285129540E+000 0.000000000000000E+000
 0.375000000000000E+000 0.100000000000000E+001 0.000000000000000E+000
 0.312500000000000E+000 0.100000000000000E+001 0.000000000000000E+000
 0.296339471848887E+000 0.927737349884604E+000 0.000000000000000E+000
 0.272754945277513E+000 0.963602684427479E+000 0.000000000000000E+000
 0.218750000000000E+000 0.100000000000000E+001 0.000000000000000E+000
 0.156250000000000E+000 0.970185411869689E+000 0.000000000000000E+000
 0.193067439035452E+000 0.962879965079150E+000 0.000000000000000E+000
 0.366022419631980E+000 0.930828672570042E+000 0.000000000000000E+000
 0.331917636626289E+000 0.912676918057824E+000 0.000000000000000E+000
 0.218750000000000E+000 0.780050991479902E+000 0.000000000000000E+000
 0.270314960374965E+000 0.802399429390985E+000 0.000000000000000E+000
 0.239019213447470E+000 0.823051378525603E+000 0.000000000000000E+000
 0.312500000000000E+000 0.750000000000000E+000 0.000000000000000E+000
 0.297176692881550E+000 0.838764170920897E+000 0.000000000000000E+000
 0.316491084060399E+000 0.796393690767677E+000 0.000000000000000E+000
 0.343750000000000E+000 0.770680188507291E+000 0.000000000000000E+000
 0.409908719410776E+000 0.836702006091634E+000 0.000000000000000E+000
 0.362591033297072E+000 0.817958948082628E+000 0.000000000000000E+000
 0.401086171766563E+000 0.789875587437421E+000 0.000000000000000E+000
 0.371341896832358E+000 0.864966336467817E+000 0.000000000000000E+000
 0.333452116450771E+000 0.839580614538559E+000 0.000000000000000E+000
 0.625000000000000E+000 0.500000000000000E+000 0.000000000000000E+000
 0.497245004128187E+000 0.796002674320860E+000 0.000000000000000E+000
 0.375000000000000E+000 0.625000000000000E+000 0.000000000000000E+000
 0.448383797292392E+000 0.805208595628784E+000 0.000000000000000E+000
 0.410140101146819E+000 0.755482168792868E+000 0.000000000000000E+000
 0.466643384891561E+000 0.767852445997818E+000 0.000000000000000E+000
 0.476967665188550E+000 0.732032311892081E+000 0.000000000000000E+000
 0.540753556856103E+000 0.747012385328872E+000 0.000000000000000E+000
 0.490851671729155E+000 0.896339978179292E+000 0.000000000000000E+000
 0.457989751325779E+000 0.856193010026991E+000 0.000000000000000E+000
 0.477617377726983E+000 0.826097842173926E+000 0.000000000000000E+000
 0.546397010943533E+000 0.849506899903764E+000 0.000000000000000E+000
 0.514994092174850E+000 0.829026377565149E+000 0.000000000000000E+000
 0.557956128164421E+000 0.797467818442289E+000 0.000000000000000E+000
 0.513053884697208E+000 0.866316721845202E+000 0.000000000000000E+000
 0.531719458287368E+000 0.903340824708691E+000 0.000000000000000E+000
 0.750000000000000E+000 0.100000000000000E+001 0.000000000000000E+000
 0.503122841217304E+000 0.947490703764094E+000 0.000000000000000E+000
 0.428509525448068E+000 0.913846660476909E+000 0.000000000000000E+000
 0.625000000000000E+000 0.100000000000000E+001 0.000000000000000E+000
 0.410139362032626E+000 0.877461197108989E+000 0.000000000000000E+000
 0.393550593852374E+000 0.908666538512922E+000 0.000000000000000E+000
 0.455853425536278E+000 0.891464570133054E+000 0.000000000000000E+000
 0.465565809489837E+000 0.931223943045515E+000 0.000000000000000E+000
 0.430803944763131E+000 0.957152995135723E+000 0.000000000000000E+000
 0.361862549463301E+000 0.897277191535820E+000 0.000000000000000E+000
 0.281250000000000E+000 0.768022264880110E+000 0.000000000000000E+000
 0.528016132294562E+000 0.779515446907155E+000 0.000000000000000E+000
 0.582435077211395E+000 0.760961532636893E+000 0.000000000000000E+000
 0.594258447236559E+000 0.718750000000000E+000 0.000000000000000E+000
 0.513210480866922E+000 0.721000388231171E+000 0.000000000000000E+000
 0.625000000000000E+000 0.625000000000000E+000 0.000000000000000E+000
 0.293099715520438E+000 0.681007179427844E+000 0.000000000000000E+000
 0.625000000000000E+000 0.687500000000000E+000 0.000000000000000E+000
 0.375000000000000E+000 0.500000000000000E+000 0.000000000000000E+000
 0.588365877190365E+000 0.682207614843486E+000 0.000000000000000E+000
 0.544806337802789E+000 0.700097114505632E+000 0.000000000000000E+000
 0.473117607324743E+000 0.654334216996401E+000 0.000000000000000E+000
 0.507976816774602E+000 0.678758937084175E+000 0.000000000000000E+000
 0.471770128441152E+000 0.693345422145358E+000 0.000000000000000E+000
 0.540484989053884E+000 0.595274872726202E+000 0.000000000000000E+000
 0.434924684287812E+000 0.717988149163748E+000 0.000000000000000E+000
 0.438762107036035E+000 0.672676424045669E+000 0.000000000000000E+000
 0.514022824851611E+000 0.633041943182225E+000 0.000000000000000E+000
 0.375000000000000E+000 0.687500000000000E+000 0.000000000000000E+000
[...]
CELL_DATA         5036
SCALARS tdens double 1
LOOKUP_TABLE default
 0.135557222222330E+000
 0.139314954163368E+000
 0.137186148506027E+000
 0.136974005323356E+000
 0.206339726989162E+000
 0.204078765095638E+000
 0.208923656640025E+000
 0.206452607944721E+000
 0.210171333763094E+000
 0.215585390696466E+000
 0.213657114532070E+000
 0.212963477178183E+000
 0.187841660376296E+000
 0.186893519260446E+000
 0.183965090172265E+000
 0.186274867094018E+000
 0.186588094476940E+000
 0.188148026718937E+000
 0.183896616175700E+000
 0.185994627791939E+000
 0.130166092927331E+000
 0.129338570921333E+000
 0.128751258289108E+000
 0.129234209230989E+000
 0.402233565621228E+000
 0.397207044709418E+000
 0.400752969172641E+000
 0.400786258575827E+000
 0.304167231444951E+000
 0.305487044979150E+000
 0.312262462720282E+000
 0.307661097871232E+000
 0.305662532144988E+000
 0.301013692459371E+000
 0.309611738174008E+000
 0.305057626412556E+000
 0.248652173466103E+000
 0.243103685637057E+000
 0.245805168746743E+000
 0.245647296087496E+000
 0.197546014347107E+000
 0.199785067542964E+000
 0.195729665652640E+000
 0.197531710034035E+000
 0.194514973338396E+000
 0.193182424714158E+000
 0.191315183073135E+000
 0.193043765764982E+000
 0.358542687689344E+000
 0.354335968748945E+000
 0.354598892480293E+000
 0.356925911640854E+000
 0.294191851392375E+000
 0.278451922322447E+000
 0.294685857009113E+000
 0.290449309407597E+000
 0.326651445429957E+000
 0.332906692144819E+000
 0.325791201809511E+000
 0.328828583787184E+000
 0.421652576103147E+000
 0.408393133389519E+000
 0.420023460993402E+000
 0.417672988746299E+000
 0.403574050629198E+000
 0.400471762356975E+000
 0.403692187099337E+000
 0.402974132727017E+000
 0.251014563447512E+000
 0.256206893057883E+000
 0.256059000222034E+000
 0.253512476112510E+000
 0.165983397603968E+000
 0.165088816310760E+000
 0.160972632512685E+000
 0.163974101079838E+000
 0.293930680983461E+000
 0.301128916188126E+000
 0.299937060592558E+000
 0.297985624269515E+000
 0.178267139485616E+000
 0.177859535520420E+000
 0.175641791753797E+000
 0.177463137273952E+000
 0.222311220910193E+000
 0.216680550938858E+000
 0.219702711815010E+000
 0.219580968724744E+000
 0.235171502443260E+000
 0.230630695216753E+000
 0.230822044881690E+000
 0.231838719910764E+000
 0.225554657172921E+000
 0.224352140978059E+000
 0.221977398338402E+000
 0.223702227682429E+000
 0.187088354391126E+000
 0.184722489303269E+000
 0.186147777111241E+000
 0.186190907101675E+000
 0.275526340916824E+000
 0.277022639249853E+000
 0.279393226699164E+000
 0.277186747804932E+000
 0.229890941009192E+000
 0.233871242156189E+000
 0.235011584843724E+000
 0.233095144490494E+000
 0.226236111557137E+000
 0.221943747473659E+000
 0.220291403996343E+000
 0.222435978975382E+000
 0.238075638986699E+000
 0.237019546265467E+000
 0.232829347667305E+000
 0.235628506824461E+000
 0.186447263838217E+000
 0.184498749732108E+000
 0.187119783929181E+000
 0.186103122243810E+000
 0.156065496968818E+000
 0.156459665761238E+000
 0.158688624006987E+000
 0.157113471167736E+000
 0.254514214665507E+000
 0.250339497967021E+000
 0.254990758811337E+000
 0.253816848363480E+000
 0.200020832884606E+000
 0.198919393294716E+000
 0.199947468352787E+000
 0.199508923435061E+000
 0.248148695696445E+000
 0.242532077110128E+000
 0.252976042053270E+000
 0.249671754171870E+000
 0.165222612493680E+000
 0.157521923566349E+000
 0.156982995306199E+000
 0.159934631368907E+000
 0.214321318384957E+000
 0.217714551566769E+000
 0.214630458931636E+000
 0.215589914832774E+000
 0.147386308291613E+000
 0.148245167681096E+000
 0.145979400638824E+000
 0.147104756245735E+000
 0.230069832648000E+000
 0.231929116558254E+000
 0.227430274128452E+000
 0.229830369383083E+000
 0.206965541698035E+000
 0.200829395331563E+000
 0.211007759885185E+000
 0.206534905225116E+000
 0.215036370403191E+000
 0.217742134939151E+000
 0.218530258190055E+000
 0.217117601591489E+000
 0.224881410268988E+000
 0.220903436851133E+000
 0.220516096919927E+000
 0.222045101391520E+000
 0.260090837101919E+000
 0.253439248117120E+000
 0.266695389412112E+000
 0.259497629547963E+000
 0.200666263437893E+000
 0.196010755287096E+000
 0.198342168187893E+000
 0.198314976703368E+000
 0.225841340069266E+000
 0.227202879402765E+000
 0.228800804756216E+000
 0.227460991199881E+000
 0.211055165639879E+000
 0.205561690560442E+000
 0.208264013161099E+000
 0.208259731115474E+000
 0.242530617481559E+000
 0.240736512461157E+000
 0.243760301002039E+000
 0.241837859671841E+000
 0.366954126197568E+000
 0.358797186364417E+000
 0.368743850869643E+000
 0.364594511702671E+000
 0.237537508458849E+000
 0.242725525177976E+000
 0.239398264304821E+000
 0.239511091056775E+000
 0.230805108265426E+000
 0.221973362072913E+000
 0.228592386722322E+000
 0.227554693351145E+000
 0.234325039737948E+000
 0.235284653100246E+000
 0.237099006046151E+000
 0.235520900875415E+000
 0.226948102359060E+000
 0.222339251366345E+000
 0.229624059708948E+000
 0.226420682923327E+000
 0.254396411005743E+000
 0.254348994640276E+000
 0.248924551718589E+000
 0.252740374968125E+000
 0.245319969989181E+000
 0.238947488757620E+000
 0.239558387638940E+000
 0.240593698937362E+000
 0.233429361526669E+000
 0.231906448243820E+000
 0.234090009143981E+000
 0.232600941728960E+000
 0.229542306477865E+000
 0.233250386346871E+000
 0.230791568304466E+000
 0.231172285909430E+000
 0.237106610740258E+000
 0.238211202378547E+000
 0.242438137907049E+000
 0.239099022641272E+000
 0.236809484766527E+000
 0.234799817901725E+000
 0.237315546391143E+000
 0.236574448504630E+000
 0.241627766470805E+000
 0.232469916570786E+000
 0.236939377764073E+000
 0.238313092144718E+000
 0.264198753164740E+000
 0.260647039315939E+000
 0.267438550627770E+000
 0.264986261701619E+000
 0.230617780763623E+000
 0.235229681163828E+000
 0.234419407045320E+000
 0.233273875407570E+000
 0.281938071628673E+000
 0.276660515251047E+000
 0.278489431600882E+000
 0.279326160522558E+000
 0.244316301388068E+000
 0.239876567290050E+000
 0.245113490096615E+000
 0.243492267086018E+000
 0.212491533744232E+000
 0.208170584057010E+000
 0.206340024696918E+000
 0.207397024696932E+000
 0.250188917486044E+000
 0.246229842219383E+000
 0.246502217074539E+000
 0.248134025917096E+000
 0.239073387802263E+000
 0.235615482605344E+000
 0.237536800017608E+000
 0.237364890305280E+000
 0.220709246525968E+000
 0.220534341295770E+000
 0.228747400728255E+000
 0.223002386127905E+000
 0.269438792350680E+000
 0.268893443407074E+000
 0.262428634454561E+000
 0.266423748256602E+000
 0.250241976816968E+000
 0.264172958545683E+000
 0.264623465481537E+000
 0.261179470035962E+000
 0.216953951979702E+000
 0.214976216090786E+000
 0.228481219311931E+000
 0.217810727834015E+000
 0.276594804876924E+000
 0.275704598539424E+000
 0.275460825308444E+000
 0.276109946461954E+000
 0.274560522178368E+000
 0.272479582665455E+000
 0.276469667967209E+000
 0.273336366723608E+000
 0.267807163546615E+000
 0.259364391817577E+000
 0.260690008782433E+000
 0.263024889948904E+000
 0.258063861872485E+000
 0.258721705047535E+000
 0.262573977943693E+000
 0.258645711497331E+000
 0.263836677672310E+000
 0.259021915545289E+000
 0.263162070423210E+000
 0.262525933952097E+000
 0.256289876937106E+000
 0.257864105007008E+000
 0.263956586401861E+000
 0.259273908131707E+000
 0.282913401142455E+000
 0.277880384534801E+000
 0.283406377783592E+000
 0.280858499836700E+000
 0.266271746190183E+000
 0.266224550114827E+000
 0.258222453011534E+000
 0.263135613532375E+000
 0.248867589965549E+000
 0.253150111804609E+000
 0.247760590129447E+000
 0.249462597865595E+000
 0.263136991049951E+000
 0.258226538361442E+000
 0.258307693768374E+000
 0.259081298077111E+000
 0.267516985483654E+000
 0.266931729602700E+000
 0.271827335160845E+000
 0.268113794971162E+000
 0.286850665053079E+000
 0.287595899609279E+000
 0.291464783876887E+000
 0.288952122633006E+000
 0.264188824984752E+000
 0.259454521806446E+000
 0.256535107746530E+000
 0.260219381321108E+000
 0.277155940881406E+000
 0.276095945491838E+000
 0.281243500653892E+000
 0.277968521632861E+000
 0.240964208496920E+000
 0.242277337080115E+000
 0.243896619306290E+000
 0.242638095399651E+000
 0.239066849879703E+000
 0.241291469938094E+000
 0.240336853815280E+000
 0.239749545324106E+000
 0.239026863825892E+000
 0.240828917339312E+000
 0.238355481745392E+000
 0.239758887893596E+000
 0.253369466019821E+000
 0.256300864280713E+000
 0.251329399914155E+000
 0.253991521190883E+000
 0.284113851594547E+000
 0.287814823288014E+000
 0.279990955319594E+000
 0.284101299518611E+000
 0.242022837782793E+000
 0.244989081549067E+000
 0.245239904390557E+000
 0.243610226129614E+000
 0.248898208731746E+000
 0.254299435005384E+000
 0.252774578683638E+000
 0.251202515836807E+000
 0.244075221269860E+000
 0.243838954022161E+000
 0.240640560128088E+000
 0.243214891027549E+000
 0.249453828268038E+000
 0.247318337817737E+000
 0.251449945483925E+000
 0.248882069354725E+000
 0.259770769270389E+000
 0.248818413766211E+000
 0.245449485309641E+000
 0.250509955566230E+000
 0.235648588735175E+000
 0.250857623562858E+000
 0.237693355801183E+000
 0.240633075411024E+000
 0.265121110812434E+000
 0.259209784551232E+000
 0.260459808843181E+000
 0.261451347077463E+000
 0.252155978339182E+000
 0.257346716227621E+000
 0.255908030973207E+000
 0.254595818924270E+000
 0.247689821840558E+000
 0.252616496091963E+000
 0.247897298441755E+000
 0.249012003457099E+000
 0.245070514400712E+000
 0.247087656461681E+000
 0.243679420849907E+000
 0.245634604041340E+000
 0.244252492301527E+000
 0.247667787216763E+000
 0.246044014194375E+000
 0.245479993134189E+000
 0.252866520679869E+000
 0.247730085278726E+000
 0.249538004877302E+000
 0.250336522809941E+000
 0.230649969533720E+000
 0.227102666564484E+000
 0.218728717205322E+000
 0.225727240826342E+000
 0.252063616608666E+000
 0.236984717256025E+000
 0.245790291030251E+000
 0.245023821647399E+000
 0.216469441167980E+000
 0.210597750914864E+000
 0.215198857052089E+000
 0.214079443533083E+000
 0.193498203612428E+000
 0.193017191705018E+000
 0.198813491040393E+000
 0.194855669702095E+000
 0.204972579923907E+000
 0.202800790120105E+000
 0.205932345526762E+000
 0.204749193088616E+000
 0.201732332749167E+000
 0.203481851796252E+000
 0.200275794116524E+000
 0.201619596045388E+000
 0.208360421207935E+000
 0.210958039343029E+000
 0.206929289782413E+000
 0.208707511787163E+000
 0.213129034588256E+000
 0.210475007818023E+000
 0.215821395102924E+000
 0.213131493818814E+000
 0.210009393132749E+000
 0.212396525017989E+000
 0.212809676165563E+000
 0.211663258390260E+000
 0.203701143271941E+000
 0.202646076877737E+000
 0.200292294168832E+000
 0.202098700323909E+000
 0.204195175161387E+000
 0.205338370850192E+000
 0.206802722541124E+000
 0.205469347188539E+000
 0.210879436781225E+000
 0.208495519915557E+000
 0.206925280727150E+000
 0.208791880602513E+000
 0.200428963764881E+000
 0.205009150214172E+000
 0.201987316200016E+000
 0.202170162335904E+000
 0.199962678767902E+000
 0.198747198753413E+000
 0.197733963609917E+000
 0.198843151873001E+000
 0.289636909360356E+000
 0.295610425904219E+000
 0.291935936810848E+000
 0.292192930089920E+000
 0.288644379524200E+000
 0.293452005721190E+000
 0.294287752579828E+000
 0.291717857897016E+000
 0.302760359123382E+000
 0.310667920141457E+000
 0.305459951374609E+000
 0.306712275479453E+000
 0.273259710427780E+000
 0.274137876206620E+000
 0.275998273428866E+000
 0.274285518960274E+000
 0.279501303391876E+000
 0.278838321538441E+000
 0.283602516032448E+000
 0.280573538422027E+000
 0.284026913021805E+000
 0.279990230616739E+000
 0.287983106483369E+000
 0.283853429795809E+000
 0.279798041603786E+000
 0.272272333195197E+000
 0.275991683810871E+000
 0.276309912121607E+000
 0.269362418385593E+000
 0.271362808715918E+000
 0.266869902115013E+000
 0.270080438383089E+000
 0.279308194267390E+000
 0.281519541646201E+000
 0.283900834074577E+000
 0.281957158747462E+000
 0.297474867862892E+000
 0.296488031137512E+000
 0.301613031754880E+000
 0.298583747744585E+000
 0.284292741716183E+000
 0.280890920334187E+000
 0.285268723915377E+000
 0.283236446665204E+000
 0.296947132704995E+000
 0.294337196677754E+000
 0.290251215987286E+000
 0.293420301919399E+000
 0.319843676515092E+000
 0.324892334613882E+000
 0.328631055952634E+000
 0.324440049863776E+000
 0.310343882164127E+000
 0.302272125682011E+000
 0.300281726346946E+000
 0.304260265015545E+000
 0.295931565213552E+000
 0.289419305821423E+000
 0.291749155722595E+000
 0.292702745317792E+000
 0.296908070668379E+000
 0.289097567854361E+000
 0.295229207683302E+000
 0.293376750193886E+000
 0.264260748994644E+000
 0.265731737030492E+000
 0.259499039300696E+000
 0.263751730991988E+000
 0.292338720084593E+000
 0.286384434938913E+000
 0.286563490074627E+000
 0.288682985993436E+000
 0.278742261742114E+000
 0.271400674110352E+000
 0.271311659342273E+000
 0.273699628584994E+000
 0.288054302546741E+000
 0.296004084848428E+000
 0.291959710375019E+000
 0.291991978595233E+000
 0.269540233042973E+000
 0.268101623982598E+000
 0.273257571113255E+000
 0.269891715383655E+000
 0.273081089903384E+000
 0.273762046384083E+000
 0.268877240825367E+000
 0.272125159949804E+000
 0.277221620587266E+000
 0.283534652366500E+000
 0.277927096066310E+000
 0.279863181544724E+000
 0.318515676377564E+000
 0.323609881971611E+000
 0.329549987428954E+000
 0.323558591897971E+000
 0.300460653581244E+000
 0.294416411466768E+000
 0.298296479126265E+000
 0.297843974554555E+000
 0.312367325993676E+000
 0.304502006445470E+000
 0.310571613223493E+000
 0.308339542113527E+000
 0.270702747395106E+000
 0.266652959052722E+000
 0.271784352412471E+000
 0.270205714995660E+000
 0.253928449899700E+000
 0.264085361261582E+000
 0.266615740211284E+000
 0.261617575031445E+000
 0.285531281357428E+000
 0.280260225434436E+000
 0.285877222646406E+000
 0.283503362216315E+000
 0.286874471073138E+000
 0.283983154107730E+000
 0.288976560729698E+000
 0.286190114603374E+000
 0.272880100057220E+000
 0.274954857377170E+000
 0.275757232144845E+000
 0.274821821229598E+000
 0.271108928382222E+000
 0.276326460978864E+000
 0.272320406856844E+000
 0.275115945232238E+000
 0.271797691377821E+000
 0.265758491921089E+000
 0.268191850519914E+000
 0.268422562913385E+000
 0.229556745499263E+000
 0.231290095609958E+000
 0.228685158493209E+000
 0.229940661555062E+000
 0.278119037199276E+000
 0.276176232251251E+000
 0.279616545904943E+000
 0.277878082903073E+000
 0.273347370449773E+000
 0.270321130259971E+000
 0.274532909396503E+000
 0.272769768768206E+000
 0.269491992744902E+000
 0.273866913291662E+000
 0.274874828889506E+000
 0.272494389885058E+000
 0.277163992161019E+000
 0.277626672034575E+000
 0.284433608915373E+000
 0.279862173425359E+000
 0.268866807727459E+000
 0.273636144863941E+000
 0.273444217201963E+000
 0.271906979289463E+000
 0.286059884489013E+000
 0.279473559161886E+000
 0.286677286687295E+000
 0.283765713692954E+000
 0.296855141122974E+000
 0.290061752245448E+000
 0.290992741559563E+000
 0.292916845431845E+000
 0.300945933743373E+000
 0.302272521928701E+000
 0.306632693313631E+000
 0.303585418608054E+000
 0.297617026816091E+000
 0.291985775106034E+000
 0.298766399913661E+000
 0.295713646204683E+000
 0.283792202806558E+000
 0.286706950310971E+000
 0.288838382710813E+000
 0.286299685002174E+000
 0.283426806504866E+000
 0.286259213917565E+000
 0.279216762655184E+000
 0.282903388563828E+000
 0.300050419564791E+000
 0.289915454562409E+000
 0.298332079625000E+000
 0.295882452670538E+000
 0.321158912394232E+000
 0.313724184403382E+000
 0.317415852377830E+000
 0.317609450040900E+000
 0.311705188005607E+000
 0.310872222509308E+000
 0.306615257652550E+000
 0.309344503210725E+000
 0.279201565686893E+000
 0.284131318176392E+000
 0.281447375061978E+000
 0.281812478385180E+000
 0.294721815788637E+000
 0.288762452027839E+000
 0.289315260618989E+000
 0.291338146419598E+000
 0.299573443413207E+000
 0.278979045642288E+000
 0.287572256573790E+000
 0.289350171812669E+000
 0.350973960981738E+000
 0.342260703266652E+000
 0.340848100669476E+000
 0.344042997343929E+000
 0.301797220531174E+000
 0.306576967142885E+000
 0.314814935738845E+000
 0.308285058936862E+000
 0.329080713537756E+000
 0.320081025653476E+000
 0.319538411944761E+000
 0.323114728440536E+000
 0.254408749665130E+000
 0.257850461950505E+000
 0.247005917578351E+000
 0.253485121871328E+000
 0.314149415897252E+000
 0.303421004427602E+000
 0.301269239431856E+000
 0.306212737278063E+000
 0.297910244682098E+000
 0.290764848045669E+000
 0.288013794968650E+000
 0.292429946430770E+000
 0.308489701880303E+000
 0.314723446490343E+000
 0.315409646510266E+000
 0.312148348810142E+000
 0.249937575217729E+000
 0.254990098726227E+000
 0.248643827282905E+000
 0.251108343426577E+000
 0.272003867511837E+000
 0.273433172520300E+000
 0.277899345590302E+000
 0.274834857371371E+000
 0.286099004044857E+000
 0.285080933134253E+000
 0.294509632057136E+000
 0.288591007667971E+000
 0.311202794886806E+000
 0.305260447300614E+000
 0.303822072875687E+000
 0.306463757488761E+000
 0.276117376626111E+000
 0.294166362382561E+000
 0.276453994920900E+000
 0.282450090639034E+000
 0.264952149633039E+000
 0.269196338881042E+000
 0.272161351279144E+000
 0.268889106390708E+000
 0.246182521683924E+000
 0.240128724555425E+000
 0.237030223553159E+000
 0.240608148585865E+000
 0.331590884367194E+000
 0.335812195086893E+000
 0.339008823586862E+000
 0.336131335302937E+000
 0.318482579498328E+000
 0.321768100591165E+000
 0.324718943903861E+000
 0.322410431771034E+000
 0.303215431200501E+000
 0.308985396185156E+000
 0.310522465412074E+000
 0.307125666657180E+000
 0.313935575215274E+000
 0.307612192756592E+000
 0.313552860115799E+000
 0.311846289690399E+000
 0.330964127052111E+000
 0.325560135322652E+000
 0.321710361537462E+000
 0.326252601254611E+000
 0.324009592274609E+000
 0.318059972335171E+000
 0.317832123753752E+000
 0.320003343324629E+000
 0.321449783925183E+000
 0.327394121514486E+000
 0.331167241760030E+000
 0.326555955755066E+000
 0.346847182747194E+000
 0.354463563433507E+000
 0.350164493618847E+000
 0.349877912689642E+000
 0.356627909317054E+000
 0.344338997158328E+000
 0.355590178548629E+000
 0.351882109904387E+000
 0.328798960538630E+000
 0.325912546970129E+000
 0.333144404894597E+000
 0.328580920970252E+000
 0.335777860003311E+000
 0.332081474550709E+000
 0.339440920201147E+000
 0.335321061366554E+000
 0.326478739644967E+000
 0.336015222695906E+000
 0.334668269108342E+000
 0.332004966869111E+000
 0.340634710521568E+000
 0.342350083993748E+000
 0.351906101942988E+000
 0.344980031550900E+000
 0.391776894857959E+000
 0.399020149378867E+000
 0.390407262363633E+000
 0.396072730781278E+000
 0.323598011810206E+000
 0.332663415376514E+000
 0.332930486213122E+000
 0.329379575762131E+000
 0.403411941300308E+000
 0.404352985413318E+000
 0.392467473311245E+000
 0.401896004755111E+000
 0.344632748503472E+000
 0.341755608227902E+000
 0.353598376408873E+000
 0.346613193229774E+000
 0.343147957163325E+000
 0.330883782667644E+000
 0.335886809130712E+000
 0.336649326015356E+000
 0.342407590995134E+000
 0.345961213954834E+000
 0.338903802008627E+000
 0.342971794075792E+000
 0.354147264012098E+000
 0.352835890588294E+000
 0.360132134240061E+000
 0.355294453668645E+000
 0.348184044147303E+000
 0.349502058625855E+000
 0.341191898196319E+000
 0.345757616505927E+000
 0.338015236396336E+000
 0.337878689833946E+000
 0.345019690981830E+000
 0.340591769733005E+000
 0.340294414138185E+000
 0.347825368617615E+000
 0.347614010251242E+000
 0.344791607273768E+000
 0.335412829742791E+000
 0.329140072133967E+000
 0.334638914035750E+000
 0.332710377194144E+000
 0.313648256302976E+000
 0.310072515734922E+000
 0.305597806475709E+000
 0.309439896205689E+000
 0.314213986197147E+000
 0.312753162243525E+000
 0.319222481757336E+000
 0.315638780725519E+000
 0.339100496081596E+000
 0.345383696896485E+000
 0.337911532059586E+000
 0.341143721363762E+000
 0.308118668109479E+000
 0.302134113365059E+000
 0.304016338907785E+000
 0.305056911326407E+000
 0.339577187297798E+000
 0.338657927854375E+000