# vtk DataFile Version 3.0
Unstructured Grid
ASCII
DATASET UNSTRUCTURED_GRID
FIELD FieldData 1
TIME 1 1 float
  0.309847E+03
POINTS         2588 double
 0.000000000000000E+000 0.000000000000000E+000 0.000000000000000E+000
 0.100000000000000E+001 0.000000000000000E+000 0.000000000000000E+000
 0.100000000000000E+001 0.100000000000000E+001 0.000000000000000E+000
 0.000000000000000E+000 0.100000000000000E+001 0.000000000000000E+000
 0.125000000000000E+000 0.250000000000000E+000 0.000000000000000E+000
 0.375000000000000E+000 0.250000000000000E+000 0.000000000000000E+000
 0.375000000000000E+000 0.750000000000000E+000 0.000000000000000E+000
 0.125000000000000E+000 0.750000000000000E+000 0.000000000000000E+000
 0.625000000000000E+000 0.250000000000000E+000 0.000000000000000E+000
 0.875000000000000E+000 0.250000000000000E+000 0.000000000000000E+000
 0.875000000000000E+000 0.750000000000000E+000 0.000000000000000E+000
 0.625000000000000E+000 0.750000000000000E+000 0.000000000000000E+000
 0.100000000000000E+001 0.500000000000000E+000 0.000000000000000E+000
 0.000000000000000E+000 0.500000000000000E+000 0.000000000000000E+000
 0.500000000000000E+000 0.000000000000000E+000 0.000000000000000E+000
 0.125000000000000E+000 0.500000000000000E+000 0.000000000000000E+000
 0.000000000000000E+000 0.750000000000000E+000 0.000000000000000E+000
 0.000000000000000E+000 0.250000000000000E+000 0.000000000000000E+000
 0.000000000000000E+000 0.875000000000000E+000 0.000000000000000E+000
 0.000000000000000E+000 0.125000000000000E+000 0.000000000000000E+000
 0.000000000000000E+000 0.812500000000000E+000 0.000000000000000E+000
 0.625000000000000E-001 0.812500000000000E+000 0.000000000000000E+000
 0.125000000000000E+000 0.375000000000000E+000 0.000000000000000E+000
 0.000000000000000E+000 0.375000000000000E+000 0.000000000000000E+000
 0.125000000000000E+000 0.625000000000000E+000 0.000000000000000E+000
 0.312500000000000E-001 0.781250000000000E+000 0.000000000000000E+000
 0.000000000000000E+000 0.625000000000000E+000 0.000000000000000E+000
 0.781250000000000E-001 0.765625000000000E+000 0.000000000000000E+000
 0.364583333333333E-001 0.744791666666667E+000 0.000000000000000E+000
 0.000000000000000E+000 0.687500000000000E+000 0.000000000000000E+000
 0.312500000000000E-001 0.843750000000000E+000 0.000000000000000E+000
 0.500000000000000E+000 0.100000000000000E+001 0.000000000000000E+000
 0.117915518486872E+000 0.805415518486872E+000 0.000000000000000E+000
 0.531250000000000E-001 0.896875000000000E+000 0.000000000000000E+000
 0.128125000000000E+000 0.862500000000000E+000 0.000000000000000E+000
 0.852352799227800E-001 0.850726351351351E+000 0.000000000000000E+000
 0.250000000000000E+000 0.750000000000000E+000 0.000000000000000E+000
 0.000000000000000E+000 0.937500000000000E+000 0.000000000000000E+000
 0.250000000000000E+000 0.100000000000000E+001 0.000000000000000E+000
 0.125000000000000E+000 0.100000000000000E+001 0.000000000000000E+000
 0.559955578663221E-001 0.864626829113867E+000 0.000000000000000E+000
 0.201656717908302E+000 0.819893736067327E+000 0.000000000000000E+000
 0.181985294117647E-001 0.906250000000000E+000 0.000000000000000E+000
 0.157158578892515E+000 0.827852167423944E+000 0.000000000000000E+000
 0.173219498992632E+000 0.789273026175030E+000 0.000000000000000E+000
 0.190370748034901E+000 0.885171153579592E+000 0.000000000000000E+000
 0.163362285670037E+000 0.862539079232243E+000 0.000000000000000E+000
 0.145689809422689E+000 0.911060496538305E+000 0.000000000000000E+000
 0.260169562085505E+000 0.921822264266383E+000 0.000000000000000E+000
 0.999952720236157E-001 0.900131729869707E+000 0.000000000000000E+000
 0.181336648989602E+000 0.921080529637299E+000 0.000000000000000E+000
 0.187500000000000E+000 0.100000000000000E+001 0.000000000000000E+000
 0.625000000000000E-001 0.100000000000000E+001 0.000000000000000E+000
 0.391044682108720E-001 0.939348618511729E+000 0.000000000000000E+000
 0.987901813178879E-001 0.953497897705852E+000 0.000000000000000E+000
 0.127430470763290E+000 0.938015442955272E+000 0.000000000000000E+000
 0.735147503821561E-001 0.927156548383149E+000 0.000000000000000E+000
 0.187500000000000E+000 0.750000000000000E+000 0.000000000000000E+000
 0.937500000000000E-001 0.986976003387646E+000 0.000000000000000E+000
 0.647068558612996E-001 0.964310770745732E+000 0.000000000000000E+000
 0.287348941263244E-001 0.975594752089430E+000 0.000000000000000E+000
 0.140548246895551E+000 0.780148342865875E+000 0.000000000000000E+000
 0.625000000000000E-001 0.656250000000000E+000 0.000000000000000E+000
 0.885416666666667E-001 0.718750000000000E+000 0.000000000000000E+000
 0.125000000000000E+000 0.687500000000000E+000 0.000000000000000E+000
 0.418778153153153E-001 0.701096693284193E+000 0.000000000000000E+000
 0.130000591648319E-001 0.718750000000000E+000 0.000000000000000E+000
 0.886787280701754E-001 0.682017543859649E+000 0.000000000000000E+000
 0.324539302647226E+000 0.874753539998500E+000 0.000000000000000E+000
 0.220842706957930E+000 0.911928394103011E+000 0.000000000000000E+000
 0.255656705174793E+000 0.856653769033302E+000 0.000000000000000E+000
 0.230240640268531E+000 0.957679342037283E+000 0.000000000000000E+000
 0.247273788001812E+000 0.889974781313083E+000 0.000000000000000E+000
 0.287822583654814E+000 0.892090285129540E+000 0.000000000000000E+000
 0.375000000000000E+000 0.100000000000000E+001 0.000000000000000E+000
 0.312500000000000E+000 0.100000000000000E+001 0.000000000000000E+000
 0.296339471848887E+000 0.927737349884604E+000 0.000000000000000E+000
 0.272754945277513E+000 0.963602684427479E+000 0.000000000000000E+000
 0.218750000000000E+000 0.100000000000000E+001 0.000000000000000E+000
 0.156250000000000E+000 0.970185411869689E+000 0.000000000000000E+000
 0.193067439035452E+000 0.962879965079150E+000 0.000000000000000E+000
 0.366022419631980E+000 0.930828672570042E+000 0.000000000000000E+000
 0.331917636626289E+000 0.912676918057824E+000 0.000000000000000E+000
 0.218750000000000E+000 0.780050991479902E+000 0.000000000000000E+000
 0.270314960374965E+000 0.802399429390985E+000 0.000000000000000E+000
 0.239019213447470E+000 0.823051378525603E+000 0.000000000000000E+000
 0.312500000000000E+000 0.750000000000000E+000 0.000000000000000E+000
 0.297176692881550E+000 0.838764170920897E+000 0.000000000000000E+000
 0.316491084060399E+000 0.796393690767677E+000 0.000000000000000E+000
 0.343750000000000E+000 0.770680188507291E+000 0.000000000000000E+000
 0.409908719410776E+000 0.836702006091634E+000 0.000000000000000E+000
 0.362591033297072E+000 0.817958948082628E+000 0.000000000000000E+000
 0.401086171766563E+000 0.789875587437421E+000 0.000000000000000E+000
 0.371341896832358E+000 0.864966336467817E+000 0.000000000000000E+000
 0.333452116450771E+000 0.839580614538559E+000 0.000000000000000E+000
 0.625000000000000E+000 0.500000000000000E+000 0.000000000000000E+000
 0.497245004128187E+000 0.796002674320860E+000 0.000000000000000E+000
 0.375000000000000E+000 0.625000000000000E+000 0.000000000000000E+000
 0.448383797292392E+000 0.805208595628784E+000 0.000000000000000E+000
 0.410140101146819E+000 0.755482168792868E+000 0.000000000000000E+000
 0.466643384891561E+000 0.767852445997818E+000 0.000000000000000E+000
 0.476967665188550E+000 0.732032311892081E+000 0.000000000000000E+000
 0.540753556856103E+000 0.747012385328872E+000 0.000000000000000E+000
 0.490851671729155E+000 0.896339978179292E+000 0.000000000000000E+000
 0.457989751325779E+000 0.856193010026991E+000 0.000000000000000E+000
 0.477617377726983E+000 0.826097842173926E+000 0.000000000000000E+000
 0.546397010943533E+000 0.849506899903764E+000 0.000000000000000E+000
 0.514994092174850E+000 0.829026377565149E+000 0.000000000000000E+000
 0.557956128164421E+000 0.797467818442289E+000 0.000000000000000E+000
 0.513053884697208E+000 0.866316721845202E+000 0.000000000000000E+000
 0.531719458287368E+000 0.903340824708691E+000 0.000000000000000E+000
 0.750000000000000E+000 0.100000000000000E+001 0.000000000000000E+000
 0.503122841217304E+000 0.947490703764094E+000 0.000000000000000E+000
 0.428509525448068E+000 0.913846660476909E+000 0.000000000000000E+000
 0.625000000000000E+000 0.100000000000000E+001 0.000000000000000E+000
 0.410139362032626E+000 0.877461197108989E+000 0.000000000000000E+000
 0.393550593852374E+000 0.908666538512922E+000 0.000000000000000E+000
 0.455853425536278E+000 0.891464570133054E+000 0.000000000000000E+000
 0.465565809489837E+000 0.931223943045515E+000 0.000000000000000E+000
 0.430803944763131E+000 0.957152995135723E+000 0.000000000000000E+000
 0.361862549463301E+000 0.897277191535820E+000 0.000000000000000E+000
 0.281250000000000E+000 0.768022264880110E+000 0.000000000000000E+000
 0.528016132294562E+000 0.779515446907155E+000 0.000000000000000E+000
 0.582435077211395E+000 0.760961532636893E+000 0.000000000000000E+000
 0.594258447236559E+000 0.718750000000000E+000 0.000000000000000E+000
 0.513210480866922E+000 0.721000388231171E+000 0.000000000000000E+000
 0.625000000000000E+000 0.625000000000000E+000 0.000000000000000E+000
 0.293099715520438E+000 0.681007179427844E+000 0.000000000000000E+000
 0.625000000000000E+000 0.687500000000000E+000 0.000000000000000E+000
 0.375000000000000E+000 0.500000000000000E+000 0.000000000000000E+000
 0.588365877190365E+000 0.682207614843486E+000 0.000000000000000E+000
 0.544806337802789E+000 0.700097114505632E+000 0.000000000000000E+000
 0.473117607324743E+000 0.654334216996401E+000 0.000000000000000E+000
 0.507976816774602E+000 0.678758937084175E+000 0.000000000000000E+000
 0.471770128441152E+000 0.693345422145358E+000 0.000000000000000E+000
 0.540484989053884E+000 0.595274872726202E+000 0.000000000000000E+000
 0.434924684287812E+000 0.717988149163748E+000 0.000000000000000E+000
 0.438762107036035E+000 0.672676424045669E+000 0.000000000000000E+000
 0.514022824851611E+000 0.633041943182225E+000 0.000000000000000E+000
 0.375000000000000E+000 0.687500000000000E+000 0.000000000000000E+000
[...]
CELL_DATA         5036
SCALARS tdens double 1
LOOKUP_TABLE default
 0.100000000000000E-011
 0.100000000000000E-011
 0.100000000000000E-011
 0.100000000000000E-011
 0.922024763954581E-007
 0.126696147647565E-007
 0.167992016960793E-007
 0.147864733434865E-007
 0.552666272059098E-001
 0.882736882596008E-001
 0.971643835886257E-001
 0.934491255452000E-001
 0.100000000000000E-011
 0.100000000000000E-011
 0.100000000000000E-011
 0.100000000000000E-011
 0.100000000000000E-011
 0.100000000000000E-011
 0.100000000000000E-011
 0.100000000000000E-011
 0.100000000000000E-011
 0.100000000000000E-011
 0.100000000000000E-011
 0.100000000000000E-011
 0.670785362109336E-002
 0.480108671628568E-002
 0.487016464558906E-001
 0.590593462549112E-002
 0.118533476646418E+000
 0.149151813178089E+000
 0.108676964242689E+000
 0.117441743431250E+000
 0.157257239772243E+000
 0.196172287283868E+000
 0.201189913511291E+000
 0.199174195067161E+000
 0.353439579640501E-011
 0.260460366686349E-011
 0.152265785984259E-011
 0.284359644126477E-011
 0.586211521109957E-009
 0.223122962802437E-008
 0.197443413032443E-008
 0.216091720527521E-008
 0.502102238638999E-006
 0.165479751181831E-005
 0.108948897933261E-005
 0.105040655858972E-005
 0.431432070425069E-009
 0.954676527632953E-010
 0.824092855413833E-011
 0.844890111733389E-010
 0.128528654741815E+000
 0.761069924512362E-001
 0.996541952264771E-001
 0.862138586514861E-001
 0.277292400687300E-002
 0.334622748605682E-003
 0.686201469578545E-003
 0.597798443289767E-003
 0.133303661714356E+000
 0.145894027239034E+000
 0.203489836704543E+000
 0.142981998471733E+000
 0.149199305653235E-010
 0.573776311144891E-010
 0.124395067417004E-010
 0.146085818821772E-010
 0.980890826283445E-008
 0.744920199768353E-002
 0.275747618444591E-003
 0.326155211898868E-003
 0.100000000000000E-011
 0.100000000000000E-011
 0.100000000000000E-011
 0.100000000000000E-011
 0.144863663701371E+000
 0.148731189939006E+000
 0.123880664571341E+000
 0.147380352420143E+000
 0.605068032911664E-005
 0.385246857121186E-004
 0.260928790572479E-005
 0.543397679039335E-005
 0.100000000000000E-011
 0.100000000000000E-011
 0.100000000000000E-011
 0.100000000000000E-011
 0.149886216492634E+000
 0.148024493086002E+000
 0.136891358362832E+000
 0.148108677709875E+000
 0.100000000000000E-011
 0.100000000000000E-011
 0.100000000000000E-011
 0.100000000000000E-011
 0.143015295667419E+000
 0.157482762811244E+000
 0.159185657107590E+000
 0.158767709410268E+000
 0.109521502714177E+000
 0.120191416142587E+000
 0.795032052512462E-001
 0.112684402768776E+000
 0.100000000000000E-011
 0.100000000000000E-011
 0.100000000000000E-011
 0.100000000000000E-011
 0.279965652621526E-003
 0.217483838396581E-004
 0.206335985875217E-003
 0.225744742119435E-003
 0.212199268299253E-001
 0.423111871910869E-002
 0.234176516001370E-001
 0.214319375891100E-001
 0.308764325919859E-008
 0.495811699507422E-009
 0.784379154439070E-009
 0.732298247990002E-009
 0.283461289762994E-011
 0.134884863644132E-011
 0.666930098504238E-011
 0.272764463795874E-011
 0.295877171751374E-009
 0.103302286132307E-008
 0.156729769197967E-007
 0.706865842261593E-009
 0.100000000000000E-011
 0.100000000000000E-011
 0.100000000000000E-011
 0.100000000000000E-011
 0.107838075427613E-007
 0.479975593896341E-002
 0.675427109864820E-002
 0.712396209312016E-002
 0.100000000000000E-011
 0.100000000000000E-011
 0.100000000000000E-011
 0.100000000000000E-011
 0.100000000000000E-011
 0.100000000000000E-011
 0.100000000000000E-011
 0.100000000000000E-011
 0.100000000000000E-011
 0.100000000000000E-011
 0.100000000000000E-011
 0.100000000000000E-011
 0.100000000000000E-011
 0.100000000000000E-011
 0.100000000000000E-011
 0.100000000000000E-011
 0.100000000000000E-011
 0.100000000000000E-011
 0.100000000000000E-011
 0.100000000000000E-011
 0.100000000000000E-011
 0.100000000000000E-011
 0.100000000000000E-011
 0.100000000000000E-011
 0.100000000000000E-011
 0.100000000000000E-011
 0.100000000000000E-011
 0.100000000000000E-011
 0.329903369927908E-001
 0.505284921913284E-001
 0.595665620563234E-001
 0.527799322362718E-001
 0.100000000000000E-011
 0.100000000000000E-011
 0.100000000000000E-011
 0.100000000000000E-011
 0.100000000000000E-011
 0.100000000000000E-011
 0.100000000000000E-011
 0.100000000000000E-011
 0.100000000000000E-011
 0.100000000000000E-011
 0.100000000000000E-011
 0.100000000000000E-011
 0.100000000000000E-011
 0.100000000000000E-011
 0.100000000000000E-011
 0.100000000000000E-011
 0.144349169639995E-005
 0.401987272018592E-005
 0.467596874647556E-005
 0.482482315596141E-005
 0.100000000000000E-011
 0.100000000000000E-011
 0.100000000000000E-011
 0.100000000000000E-011
 0.100000000000000E-011
 0.256884439127526E-002
 0.103571305887684E-001
 0.528690512994961E-002
 0.100000000000000E-011
 0.100000000000000E-011
 0.100000000000000E-011
 0.100000000000000E-011
 0.100000000000000E-011
 0.100000000000000E-011
 0.100000000000000E-011
 0.100000000000000E-011
 0.283344196993050E-011
 0.100000000000000E-011
 0.100000000000000E-011
 0.100000000000000E-011
 0.265404297051266E-011
 0.100000000000000E-011
 0.190399243411033E-011
 0.201259929849995E-011
 0.100000000000000E-011
 0.100000000000000E-011
 0.100000000000000E-011
 0.100000000000000E-011
 0.100000000000000E-011
 0.100000000000000E-011
 0.100000000000000E-011
 0.100000000000000E-011
 0.100000000000000E-011
 0.100000000000000E-011
 0.100000000000000E-011
 0.100000000000000E-011
 0.100000000000000E-011
 0.100000000000000E-011
 0.100000000000000E-011
 0.100000000000000E-011
 0.516494025395217E-001
 0.338234409507645E-001
 0.640412496245872E-001
 0.399304225431687E-001
 0.169174926172477E-004
 0.744701220180102E-004
 0.845969911973914E-003
 0.900871814995800E-004
 0.100000000000000E-011
 0.100000000000000E-011
 0.100000000000000E-011
 0.100000000000000E-011
 0.273907055975309E-005
 0.207625657808033E-005
 0.220755457391945E-004
 0.201246870882029E-005
 0.100000000000000E-011
 0.100000000000000E-011
 0.200966817248727E-011
 0.100000000000000E-011
 0.581776402694767E-002
 0.220066775809194E-001
 0.726291405057013E-003
 0.685231984023990E-002
 0.100000000000000E-011
 0.100000000000000E-011
 0.100000000000000E-011
 0.100000000000000E-011
 0.100000000000000E-011
 0.100000000000000E-011
 0.100000000000000E-011
 0.100000000000000E-011
 0.100000000000000E-011
 0.100000000000000E-011
 0.100000000000000E-011
 0.100000000000000E-011
 0.327899958671597E-001
 0.646226443352176E-002
 0.180977393406695E-002
 0.566521061405707E-002
 0.882776147595803E-001
 0.116991164713182E+000
 0.109106161530998E+000
 0.100436119166078E+000
 0.148051918608241E-001
 0.296253092920233E-001
 0.491816948548441E-001
 0.385064649149386E-001
 0.328469811022352E-001
 0.679163032966886E-001
 0.932526412548033E-001
 0.673981832986884E-001
 0.336532269828691E-005
 0.526416676254954E-003
 0.882570981771259E-004
 0.109264580934787E-003
 0.287499579089591E-001
 0.161389462540350E-002
 0.141464529303308E-001
 0.167814376804282E-001
 0.245150441133386E-009
 0.889948480996908E-008
 0.970466047739912E-008
 0.854462371208446E-008
 0.100834434920595E-008
 0.291734363320579E-009
 0.100931698590479E-007
 0.999824670093810E-009
 0.100000000000000E-011
 0.100000000000000E-011
 0.100000000000000E-011
 0.100000000000000E-011
 0.153768501505019E-008
 0.103134170479530E-006
 0.159676220066884E-006
 0.813990652228509E-007
 0.100000000000000E-011
 0.100000000000000E-011
 0.100000000000000E-011
 0.100000000000000E-011
 0.222234335552529E-011
 0.273301930448386E-011
 0.100000000000000E-011
 0.223541618141496E-011
 0.437516914232142E-010
 0.100000000000000E-011
 0.183352094369189E-010
 0.185204392178745E-010
 0.132656284824853E-008
 0.107520811037015E-007
 0.903357623287100E-008
 0.116831925571729E-007
 0.408019674012634E-005
 0.101134414524658E-004
 0.452961695566561E-005
 0.491207395961048E-005
 0.100000000000000E-011
 0.100000000000000E-011
 0.100000000000000E-011
 0.100000000000000E-011
 0.121533265895000E-009
 0.864328587297308E-008
 0.552139643737407E-009
 0.562100198088589E-009
 0.100000000000000E-011
 0.100000000000000E-011
 0.100000000000000E-011
 0.100000000000000E-011
 0.100000000000000E-011
 0.100000000000000E-011
 0.100000000000000E-011
 0.100000000000000E-011
 0.100000000000000E-011
 0.100000000000000E-011
 0.100000000000000E-011
 0.100000000000000E-011
 0.100000000000000E-011
 0.100000000000000E-011
 0.100000000000000E-011
 0.100000000000000E-011
 0.662201467189729E-010
 0.241117142511351E-011
 0.100532078598203E-010
 0.880604949772045E-011
 0.100000000000000E-011
 0.100000000000000E-011
 0.100000000000000E-011
 0.100000000000000E-011
 0.100000000000000E-011
 0.100000000000000E-011
 0.100000000000000E-011
 0.100000000000000E-011
 0.100000000000000E-011
 0.100000000000000E-011
 0.100000000000000E-011
 0.100000000000000E-011
 0.100000000000000E-011
 0.100000000000000E-011
 0.100000000000000E-011
 0.100000000000000E-011
 0.871817256945470E-001
 0.596029194938030E-001
 0.698441973937797E-001
 0.790740856218570E-001
 0.155282211327813E-001
 0.231553846539782E-001
 0.781756917850189E-002
 0.160538143983346E-001
 0.100000000000000E-011
 0.100000000000000E-011
 0.100000000000000E-011
 0.100000000000000E-011
 0.100000000000000E-011
 0.100000000000000E-011
 0.100000000000000E-011
 0.100000000000000E-011
 0.100000000000000E-011
 0.100000000000000E-011
 0.100000000000000E-011
 0.100000000000000E-011
 0.100000000000000E-011
 0.100000000000000E-011
 0.100000000000000E-011
 0.100000000000000E-011
 0.100000000000000E-011
 0.100000000000000E-011
 0.100000000000000E-011
 0.100000000000000E-011
 0.100000000000000E-011
 0.100000000000000E-011
 0.100000000000000E-011
 0.100000000000000E-011
 0.491395954806668E-001
 0.197344416700878E-001
 0.133296615944531E-001
 0.321203027861042E-001
 0.286579529980416E-001
 0.253537997121898E-001
 0.424031145253028E-001
 0.345254409827730E-001
 0.100000000000000E-011
 0.100000000000000E-011
 0.100000000000000E-011
 0.100000000000000E-011
 0.100000000000000E-011
 0.100000000000000E-011
 0.100000000000000E-011
 0.100000000000000E-011
 0.100000000000000E-011
 0.100000000000000E-011
 0.100000000000000E-011
 0.100000000000000E-011
 0.100000000000000E-011
 0.100000000000000E-011
 0.100000000000000E-011
 0.100000000000000E-011
 0.100000000000000E-011
 0.100000000000000E-011
 0.100000000000000E-011
 0.100000000000000E-011
 0.100000000000000E-011
 0.100000000000000E-011
 0.100000000000000E-011
 0.100000000000000E-011
 0.100000000000000E-011
 0.100000000000000E-011
 0.100000000000000E-011
 0.100000000000000E-011
 0.100000000000000E-011
 0.100000000000000E-011
 0.100000000000000E-011
 0.100000000000000E-011
 0.100000000000000E-011
 0.100000000000000E-011
 0.100000000000000E-011
 0.100000000000000E-011
 0.100000000000000E-011
 0.100000000000000E-011
 0.100000000000000E-011
 0.100000000000000E-011
 0.100000000000000E-011
 0.100000000000000E-011
 0.100000000000000E-011
 0.100000000000000E-011
 0.100000000000000E-011
 0.100000000000000E-011
 0.100000000000000E-011
 0.100000000000000E-011
 0.465688102606780E-001
 0.261311175376360E-001
 0.114782307248173E-001
 0.249966159421304E-001
 0.346656049457896E-006
 0.637276378934152E-006
 0.163665177294798E-007
 0.361741761046402E-006
 0.447405767208951E-005
 0.282217354421594E-006
 0.261947641375278E-006
 0.299222805592947E-006
 0.111803645003397E+000
 0.109605571388853E+000
 0.906135824745996E-001
 0.112381518473946E+000
 0.228453623914765E-003
 0.313638226706693E-002
 0.406914730863564E-003
 0.325839646844043E-003
 0.100000000000000E-011
 0.155224525669054E-011
 0.100000000000000E-011
 0.100000000000000E-011
 0.100000000000000E-011
 0.100000000000000E-011
 0.177990918411195E-011
 0.100000000000000E-011
 0.559934526550402E-003
 0.419208113449160E-005
 0.101003356422946E-004
 0.766913135391739E-005
 0.100461339109512E-001
 0.255165437613560E-001
 0.234181664590720E-002
 0.941844676224291E-002
 0.190925603801487E-007
 0.688354268108838E-006
 0.778967531548502E-007
 0.729636659324294E-007
 0.429878522004107E-005
 0.177314501536116E-004
 0.958991233770236E-005
 0.138581627473495E-004
 0.813595610131474E-005
 0.424820547124428E-005
 0.872257680959104E-005
 0.856866802326758E-005
 0.583919670865506E-007
 0.989454051701213E-007
 0.959894022173314E-008
 0.504302702575898E-007
 0.106575149618467E-009
 0.145961451418508E-010
 0.249475599166057E-009
 0.838015390653885E-010
 0.185338167190886E-003
 0.431875996851696E-003
 0.277360286395968E-002
 0.338574755240566E-003
 0.115309295136197E-010
 0.107736989174123E-009
 0.229542306400677E-009
 0.117470558460801E-009
 0.373631113003720E-010
 0.100000000000000E-011
 0.100000000000000E-011
 0.100000000000000E-011
 0.746832201907871E-008
 0.186208448423543E-008
 0.172344106220299E-006
 0.752733683428040E-008
 0.100000000000000E-011
 0.100000000000000E-011
 0.100000000000000E-011
 0.100000000000000E-011
 0.564582061722696E-010
 0.542451345858057E-011
 0.230015660325178E-011
 0.555832488192579E-011
 0.100000000000000E-011
 0.446395010818018E-010
 0.890966939665080E-011
 0.103430331844018E-010
 0.760809245997535E-008
 0.131630781823855E-009
 0.874434096434294E-009
 0.821679687576674E-009
 0.130994949120098E+000
 0.132627947147014E+000
 0.130653300837944E+000
 0.132590905132210E+000
 0.763289031749720E-004
 0.838353058993246E-004
 0.408940045649769E-005
 0.809265991308611E-004
 0.225831785788464E-002
 0.522458007537511E-002
 0.106448029954200E-001
 0.548116003100024E-002
 0.296557813544552E-006
 0.424820838264577E-005
 0.409955939398286E-005
 0.409549207209412E-005
 0.114659043866621E+000
 0.117884596421858E+000
 0.120900894594344E+000
 0.117604783221526E+000
 0.686381931228371E-001
 0.941783490909096E-001
 0.789041666134909E-001
 0.753017189950257E-001
 0.860028903755821E-001
 0.122911784866205E+000
 0.113364790039718E+000
 0.116948784388552E+000
 0.224993022162834E-002
 0.250165312791939E-001
 0.690916392697470E-002
 0.740026512420848E-002
 0.115476008994768E-001
 0.509216090073990E-001
 0.172718613475638E-001
 0.154229237413178E-001
 0.103884321501762E+000
 0.948935053387223E-001
 0.857414417708390E-001
 0.933234751443382E-001
 0.123290367906229E+000
 0.119783319264802E+000
 0.121518352653410E+000
 0.119609339505898E+000
 0.139661325554927E+000
 0.124041102011719E+000
 0.132671761466529E+000
 0.136286409508642E+000
 0.322556900524624E-001
 0.943879290565841E-001
 0.594441298098280E-001
 0.582578373840729E-001
 0.124467365798726E+000
 0.122848512767519E+000
 0.127423367079841E+000
 0.126690402552147E+000
 0.125080424630841E+000
 0.128505431604675E+000
 0.129811079171677E+000
 0.126751590896181E+000
 0.123220329060523E+000
 0.997317083042261E-001
 0.127935146278794E+000
 0.125451268054667E+000
 0.113264669486839E+000
 0.996419579442595E-001
 0.122513892734973E+000
 0.112872174163380E+000
 0.132957866440143E+000
 0.133978009088920E+000
 0.139534358536854E+000
 0.136970674597449E+000
 0.125590199464667E+000
 0.131380161218683E+000
 0.142571827479911E+000
 0.130204275545539E+000
 0.420312219327188E-001
 0.817211234044869E-001
 0.349417489622417E-001
 0.396222261014559E-001
 0.486413537508849E-001
 0.989484473987716E-001
 0.887545252938126E-001
 0.913970537672007E-001
 0.358364596277332E-001
 0.448070606021902E-001
 0.103084265876852E-001
 0.395571352047343E-001
 0.950693240718226E-001
 0.129329707504469E+000
 0.100796041719427E+000
 0.980297029230346E-001
 0.137926605115937E+000
 0.955060424046589E-001
 0.975832436273642E-001
 0.967164451103388E-001
 0.215096223145811E-001
 0.267126050135679E-001
 0.563019395966743E-001
 0.257264201514099E-001
 0.157570949119005E-003
 0.199312573541327E-004
 0.294594394752542E-003
 0.189797986123084E-003
 0.122327491767806E+000
 0.867351443175851E-001
 0.829188511042699E-001
 0.858994494165349E-001
 0.519521132635208E-001
 0.735788401349356E-001
 0.101505459692239E+000
 0.699532852624040E-001
 0.333503361281533E+000
 0.284130200115087E+000
 0.313947084810362E+000
 0.316567083903387E+000
 0.219832060843392E+000
 0.175233588285789E+000
 0.221169612452444E+000
 0.217857179834847E+000
 0.487606510498806E-001
 0.833022332897384E-001
 0.401501531924163E-001
 0.485566943138836E-001
 0.939615617943128E-001
 0.991559828831155E-001
 0.141644203455127E+000
 0.954557725229169E-001
 0.150736501141495E+000
 0.207911236404358E+000
 0.205311133956124E+000
 0.205787369806648E+000
 0.332404119536621E-001
 0.274212646663192E-001
 0.342815378777674E-001
 0.300168837952731E-001
 0.135827195526037E+000
 0.130668133870677E+000
 0.944034942685724E-001
 0.134522667526758E+000
 0.149494219440379E+000
 0.143860259551669E+000
 0.106803526467295E+000
 0.142973629029847E+000
 0.159158666295909E+000
 0.168326987681973E+000
 0.164783437610586E+000
 0.166192695724298E+000
 0.624695329893076E-001
 0.111722670478592E+000
 0.461979861549188E-001
 0.569189091562391E-001
 0.220888490885719E-001
 0.234282853870160E-001
 0.247889828101232E-001
 0.238490208558305E-001
 0.121443999447824E+000
 0.136530524610300E+000
 0.993037959484115E-001
 0.120854171887666E+000
 0.120316896997472E+000
 0.165512177286725E+000
 0.102360591028266E+000
 0.137350449310429E+000
 0.167332084687368E-001
 0.209724628639786E-001
 0.197911415387661E-001
 0.177934960822487E-001
 0.254231693755823E-005
 0.271361168117674E-005
 0.122791995922045E-005
 0.220833834409310E-005
 0.164342470184534E+000
 0.133108019713750E+000
 0.171441560425134E+000
 0.167827584631829E+000
 0.125039793323801E+000
 0.102663828365477E+000
 0.153143551413441E+000
 0.125373426364547E+000
 0.890986215109609E-002
 0.695360687493566E-002
 0.126706193235501E-002
 0.757400579509145E-002
 0.156253051949669E+000
 0.149184704672700E+000
 0.134315826840592E+000
 0.150783903143067E+000
 0.219632821772552E-001
 0.210048998762094E-001
 0.559062924789791E-001
 0.217242407909175E-001
 0.161025885335757E+000
 0.158858465001459E+000
 0.132956374627035E+000
 0.162385106954171E+000
 0.146251463606070E+000
 0.155526117819609E+000
 0.946295772061923E-001
 0.149705183504285E+000
 0.100636894926616E+000
 0.560890038863972E-001
 0.317554075543974E-001
 0.549723391249613E-001
 0.180418280466522E+000
 0.132782761896952E+000
 0.127989587003544E+000
 0.130851147987004E+000
 0.155998139241216E+000
 0.102118028825788E+000
 0.122089672573081E+000
 0.116078295352581E+000
 0.942903429387278E-001
 0.156921210531322E+000
 0.135763137238153E+000
 0.137237410348024E+000
 0.616640878268985E-001
 0.717584113514024E-001
 0.612308092567585E-001
 0.643464928171480E-001
 0.663865125907971E-001
 0.763146128637029E-001
 0.766930298622270E-001
 0.709012672088251E-001
 0.196515769508604E-002
 0.298233952963638E-002
 0.737854451532165E-001
 0.287249937445915E-002
 0.561627810553637E-001
 0.566757184764803E-001
 0.223230733140006E-001
 0.567330821442291E-001
 0.247759463161383E+000
 0.157018236996171E+000
 0.189673578561142E+000
 0.191454679798240E+000
 0.174508906317089E+000
 0.135537360686975E+000
 0.177658791618359E+000
 0.176453478360783E+000
 0.614947017130597E-007
 0.316830648292267E-006
 0.667662496453785E-006
 0.297473626912921E-006
 0.958825610646770E-001
 0.302494960870081E-001
 0.680270624872916E-001
 0.700621190063836E-001
 0.145145824737251E-003
 0.131803556756746E-002
 0.793754263926691E-003
 0.732694001572659E-003
 0.124416442027733E-002
 0.125002823000637E-003
 0.156876067603957E-002
 0.134338767216105E-002
 0.223750928256514E-001
 0.574564625622184E-001
 0.223707427007566E-001
 0.212389442270833E-001
 0.570093893625508E-006
 0.439182603972349E-006
 0.583531376667453E-007
 0.462110175378971E-006
 0.276283070569323E-003
 0.239346953076475E-002
 0.207044609008528E-002
 0.222438792062852E-002
 0.646934937359405E-001
 0.337094572018768E-001
 0.797949013327096E-001
 0.670230263029636E-001
 0.114008123221562E-002
 0.635506470978943E-002
 0.105978305185257E-002
 0.107550316305122E-002
 0.290552466033367E-004
 0.162746832665250E-005
 0.280323207128744E-005
 0.246858882021048E-005
 0.261436909946134E-004
 0.631132047963601E-004
 0.354912667902099E-003
 0.514285475902166E-004
 0.222756757959825E-003
 0.174035275148409E-002