# vtk DataFile Version 3.0
Unstructured Grid
ASCII
DATASET UNSTRUCTURED_GRID
FIELD FieldData 1
TIME 1 1 float
  0.121875E+02
POINTS         2588 double
 0.000000000000000E+000 0.000000000000000E+000 0.000000000000000E+000
 0.100000000000000E+001 0.000000000000000E+000 0.000000000000000E+000
 0.100000000000000E+001 0.100000000000000E+001 0.000000000000000E+000
 0.000000000000000E+000 0.100000000000000E+001 0.000000000000000E+000
 0.125000000000000E+000 0.250000000000000E+000 0.000000000000000E+000
 0.375000000000000E+000 0.250000000000000E+000 0.000000000000000E+000
 0.375000000000000E+000 0.750000000000000E+000 0.000000000000000E+000
 0.125000000000000E+000 0.750000000000000E+000 0.000000000000000E+000
 0.625000000000000E+000 0.250000000000000E+000 0.000000000000000E+000
 0.875000000000000E+000 0.250000000000000E+000 0.000000000000000E+000
 0.875000000000000E+000 0.750000000000000E+000 0.000000000000000E+000
 0.625000000000000E+000 0.750000000000000E+000 0.000000000000000E+000
 0.100000000000000E+001 0.500000000000000E+000 0.000000000000000E+000
 0.000000000000000E+000 0.500000000000000E+000 0.000000000000000E+000
 0.500000000000000E+000 0.000000000000000E+000 0.000000000000000E+000
 0.125000000000000E+000 0.500000000000000E+000 0.000000000000000E+000
 0.000000000000000E+000 0.750000000000000E+000 0.000000000000000E+000
 0.000000000000000E+000 0.250000000000000E+000 0.000000000000000E+000
 0.000000000000000E+000 0.875000000000000E+000 0.000000000000000E+000
 0.000000000000000E+000 0.125000000000000E+000 0.000000000000000E+000
 0.000000000000000E+000 0.812500000000000E+000 0.000000000000000E+000
 0.625000000000000E-001 0.812500000000000E+000 0.000000000000000E+000
 0.125000000000000E+000 0.375000000000000E+000 0.000000000000000E+000
 0.000000000000000E+000 0.375000000000000E+000 0.000000000000000E+000
 0.125000000000000E+000 0.625000000000000E+000 0.000000000000000E+000
 0.312500000000000E-001 0.781250000000000E+000 0.000000000000000E+000
 0.000000000000000E+000 0.625000000000000E+000 0.000000000000000E+000
 0.781250000000000E-001 0.765625000000000E+000 0.000000000000000E+000
 0.364583333333333E-001 0.744791666666667E+000 0.000000000000000E+000
 0.000000000000000E+000 0.687500000000000E+000 0.000000000000000E+000
 0.312500000000000E-001 0.843750000000000E+000 0.000000000000000E+000
 0.500000000000000E+000 0.100000000000000E+001 0.000000000000000E+000
 0.117915518486872E+000 0.805415518486872E+000 0.000000000000000E+000
 0.531250000000000E-001 0.896875000000000E+000 0.000000000000000E+000
 0.128125000000000E+000 0.862500000000000E+000 0.000000000000000E+000
 0.852352799227800E-001 0.850726351351351E+000 0.000000000000000E+000
 0.250000000000000E+000 0.750000000000000E+000 0.000000000000000E+000
 0.000000000000000E+000 0.937500000000000E+000 0.000000000000000E+000
 0.250000000000000E+000 0.100000000000000E+001 0.000000000000000E+000
 0.125000000000000E+000 0.100000000000000E+001 0.000000000000000E+000
 0.559955578663221E-001 0.864626829113867E+000 0.000000000000000E+000
 0.201656717908302E+000 0.819893736067327E+000 0.000000000000000E+000
 0.181985294117647E-001 0.906250000000000E+000 0.000000000000000E+000
 0.157158578892515E+000 0.827852167423944E+000 0.000000000000000E+000
 0.173219498992632E+000 0.789273026175030E+000 0.000000000000000E+000
 0.190370748034901E+000 0.885171153579592E+000 0.000000000000000E+000
 0.163362285670037E+000 0.862539079232243E+000 0.000000000000000E+000
 0.145689809422689E+000 0.911060496538305E+000 0.000000000000000E+000
 0.260169562085505E+000 0.921822264266383E+000 0.000000000000000E+000
 0.999952720236157E-001 0.900131729869707E+000 0.000000000000000E+000
 0.181336648989602E+000 0.921080529637299E+000 0.000000000000000E+000
 0.187500000000000E+000 0.100000000000000E+001 0.000000000000000E+000
 0.625000000000000E-001 0.100000000000000E+001 0.000000000000000E+000
 0.391044682108720E-001 0.939348618511729E+000 0.000000000000000E+000
 0.987901813178879E-001 0.953497897705852E+000 0.000000000000000E+000
 0.127430470763290E+000 0.938015442955272E+000 0.000000000000000E+000
 0.735147503821561E-001 0.927156548383149E+000 0.000000000000000E+000
 0.187500000000000E+000 0.750000000000000E+000 0.000000000000000E+000
 0.937500000000000E-001 0.986976003387646E+000 0.000000000000000E+000
 0.647068558612996E-001 0.964310770745732E+000 0.000000000000000E+000
 0.287348941263244E-001 0.975594752089430E+000 0.000000000000000E+000
 0.140548246895551E+000 0.780148342865875E+000 0.000000000000000E+000
 0.625000000000000E-001 0.656250000000000E+000 0.000000000000000E+000
 0.885416666666667E-001 0.718750000000000E+000 0.000000000000000E+000
 0.125000000000000E+000 0.687500000000000E+000 0.000000000000000E+000
 0.418778153153153E-001 0.701096693284193E+000 0.000000000000000E+000
 0.130000591648319E-001 0.718750000000000E+000 0.000000000000000E+000
 0.886787280701754E-001 0.682017543859649E+000 0.000000000000000E+000
 0.324539302647226E+000 0.874753539998500E+000 0.000000000000000E+000
 0.220842706957930E+000 0.911928394103011E+000 0.000000000000000E+000
 0.255656705174793E+000 0.856653769033302E+000 0.000000000000000E+000
 0.230240640268531E+000 0.957679342037283E+000 0.000000000000000E+000
 0.247273788001812E+000 0.889974781313083E+000 0.000000000000000E+000
 0.287822583654814E+000 0.892090285129540E+000 0.000000000000000E+000
 0.375000000000000E+000 0.100000000000000E+001 0.000000000000000E+000
 0.312500000000000E+000 0.100000000000000E+001 0.000000000000000E+000
 0.296339471848887E+000 0.927737349884604E+000 0.000000000000000E+000
 0.272754945277513E+000 0.963602684427479E+000 0.000000000000000E+000
 0.218750000000000E+000 0.100000000000000E+001 0.000000000000000E+000
 0.156250000000000E+000 0.970185411869689E+000 0.000000000000000E+000
 0.193067439035452E+000 0.962879965079150E+000 0.000000000000000E+000
 0.366022419631980E+000 0.930828672570042E+000 0.000000000000000E+000
 0.331917636626289E+000 0.912676918057824E+000 0.000000000000000E+000
 0.218750000000000E+000 0.780050991479902E+000 0.000000000000000E+000
 0.270314960374965E+000 0.802399429390985E+000 0.000000000000000E+000
 0.239019213447470E+000 0.823051378525603E+000 0.000000000000000E+000
 0.312500000000000E+000 0.750000000000000E+000 0.000000000000000E+000
 0.297176692881550E+000 0.838764170920897E+000 0.000000000000000E+000
 0.316491084060399E+000 0.796393690767677E+000 0.000000000000000E+000
 0.343750000000000E+000 0.770680188507291E+000 0.000000000000000E+000
 0.409908719410776E+000 0.836702006091634E+000 0.000000000000000E+000
 0.362591033297072E+000 0.817958948082628E+000 0.000000000000000E+000
 0.401086171766563E+000 0.789875587437421E+000 0.000000000000000E+000
 0.371341896832358E+000 0.864966336467817E+000 0.000000000000000E+000
 0.333452116450771E+000 0.839580614538559E+000 0.000000000000000E+000
 0.625000000000000E+000 0.500000000000000E+000 0.000000000000000E+000
 0.497245004128187E+000 0.796002674320860E+000 0.000000000000000E+000
 0.375000000000000E+000 0.625000000000000E+000 0.000000000000000E+000
 0.448383797292392E+000 0.805208595628784E+000 0.000000000000000E+000
 0.410140101146819E+000 0.755482168792868E+000 0.000000000000000E+000
 0.466643384891561E+000 0.767852445997818E+000 0.000000000000000E+000
 0.476967665188550E+000 0.732032311892081E+000 0.000000000000000E+000
 0.540753556856103E+000 0.747012385328872E+000 0.000000000000000E+000
 0.490851671729155E+000 0.896339978179292E+000 0.000000000000000E+000
 0.457989751325779E+000 0.856193010026991E+000 0.000000000000000E+000
 0.477617377726983E+000 0.826097842173926E+000 0.000000000000000E+000
 0.546397010943533E+000 0.849506899903764E+000 0.000000000000000E+000
 0.514994092174850E+000 0.829026377565149E+000 0.000000000000000E+000
 0.557956128164421E+000 0.797467818442289E+000 0.000000000000000E+000
 0.513053884697208E+000 0.866316721845202E+000 0.000000000000000E+000
 0.531719458287368E+000 0.903340824708691E+000 0.000000000000000E+000
 0.750000000000000E+000 0.100000000000000E+001 0.000000000000000E+000
 0.503122841217304E+000 0.947490703764094E+000 0.000000000000000E+000
 0.428509525448068E+000 0.913846660476909E+000 0.000000000000000E+000
 0.625000000000000E+000 0.100000000000000E+001 0.000000000000000E+000
 0.410139362032626E+000 0.877461197108989E+000 0.000000000000000E+000
 0.393550593852374E+000 0.908666538512922E+000 0.000000000000000E+000
 0.455853425536278E+000 0.891464570133054E+000 0.000000000000000E+000
 0.465565809489837E+000 0.931223943045515E+000 0.000000000000000E+000
 0.430803944763131E+000 0.957152995135723E+000 0.000000000000000E+000
 0.361862549463301E+000 0.897277191535820E+000 0.000000000000000E+000
 0.281250000000000E+000 0.768022264880110E+000 0.000000000000000E+000
 0.528016132294562E+000 0.779515446907155E+000 0.000000000000000E+000
 0.582435077211395E+000 0.760961532636893E+000 0.000000000000000E+000
 0.594258447236559E+000 0.718750000000000E+000 0.000000000000000E+000
 0.513210480866922E+000 0.721000388231171E+000 0.000000000000000E+000
 0.625000000000000E+000 0.625000000000000E+000 0.000000000000000E+000
 0.293099715520438E+000 0.681007179427844E+000 0.000000000000000E+000
 0.625000000000000E+000 0.687500000000000E+000 0.000000000000000E+000
 0.375000000000000E+000 0.500000000000000E+000 0.000000000000000E+000
 0.588365877190365E+000 0.682207614843486E+000 0.000000000000000E+000
 0.544806337802789E+000 0.700097114505632E+000 0.000000000000000E+000
 0.473117607324743E+000 0.654334216996401E+000 0.000000000000000E+000
 0.507976816774602E+000 0.678758937084175E+000 0.000000000000000E+000
 0.471770128441152E+000 0.693345422145358E+000 0.000000000000000E+000
 0.540484989053884E+000 0.595274872726202E+000 0.000000000000000E+000
 0.434924684287812E+000 0.717988149163748E+000 0.000000000000000E+000
 0.438762107036035E+000 0.672676424045669E+000 0.000000000000000E+000
 0.514022824851611E+000 0.633041943182225E+000 0.000000000000000E+000
 0.375000000000000E+000 0.687500000000000E+000 0.000000000000000E+000
[...]
CELL_DATA         5036
SCALARS tdens double 1
LOOKUP_TABLE default
 0.878621144184162E-002
 0.109351242344349E-001
 0.960874355216990E-002
 0.965245899672198E-002
 0.330160491227844E-001
 0.305191323414296E-001
 0.313818606656976E-001
 0.316159271809245E-001
 0.765348754415116E-001
 0.829934737070535E-001
 0.835046853366220E-001
 0.820366645981432E-001
 0.183798433090278E-001
 0.167198383782573E-001
 0.175697700706202E-001
 0.174752402099148E-001
 0.207628681414812E-001
 0.196681755054767E-001
 0.184547605937759E-001
 0.195510237365095E-001
 0.633271254781782E-002
 0.597523076658779E-002
 0.585182542154785E-002
 0.589779362384638E-002
 0.112194094141069E+000
 0.107184917546029E+000
 0.125475265136592E+000
 0.112427348398121E+000
 0.839839202623415E-001
 0.889875638504393E-001
 0.857856278927367E-001
 0.859484111211146E-001
 0.122890247334233E+000
 0.124379741472674E+000
 0.130551915184340E+000
 0.126338488472595E+000
 0.246385923852700E-001
 0.234903665947413E-001
 0.229426038068607E-001
 0.236347775753967E-001
 0.275099804847865E-001
 0.290035863016944E-001
 0.289269480290500E-001
 0.284588116958402E-001
 0.347835565940892E-001
 0.368038126084539E-001
 0.357388139283214E-001
 0.356917292113282E-001
 0.341120633801605E-001
 0.262402523153052E-001
 0.237761509291983E-001
 0.278667906363624E-001
 0.139801287620382E+000
 0.110655261847944E+000
 0.127842262640668E+000
 0.123118101553071E+000
 0.755582519959721E-001
 0.728654508848219E-001
 0.716374701043276E-001
 0.732947013814586E-001
 0.154960524368509E+000
 0.144070780159423E+000
 0.167840456668427E+000
 0.153120160064528E+000
 0.662218178134253E-001
 0.696052975722544E-001
 0.661147703693565E-001
 0.670182007369587E-001
 0.297775387094911E-001
 0.402139665468753E-001
 0.351657616523878E-001
 0.350934031062738E-001
 0.145978238001637E-001
 0.142676695346078E-001
 0.136355680994120E-001
 0.140687254729134E-001
 0.862825660194686E-001
 0.887853598069411E-001
 0.840770204432383E-001
 0.867049500012847E-001
 0.371906158268313E-001
 0.392765540261256E-001
 0.356149180968987E-001
 0.378990202824800E-001
 0.157654637594509E-001
 0.157532571161087E-001
 0.158809577604126E-001
 0.158152397697379E-001
 0.950487496989952E-001
 0.942630262400613E-001
 0.927827287681022E-001
 0.941481480924579E-001
 0.165156520007603E-001
 0.158446811818355E-001
 0.160818785023158E-001
 0.160356892336052E-001
 0.502924522286542E-001
 0.485893276737841E-001
 0.453936856521503E-001
 0.477699518641661E-001
 0.798061957044745E-001
 0.796776701990742E-001
 0.759134498960174E-001
 0.785372472306180E-001
 0.181412369211919E-001
 0.216634824504199E-001
 0.193220371092289E-001
 0.195636761317241E-001
 0.557960920383296E-001
 0.467254427117866E-001
 0.510051305932901E-001
 0.512794212625269E-001
 0.773615423313345E-001
 0.668932507083636E-001
 0.752467511100326E-001
 0.739390171740775E-001
 0.286001641741771E-001
 0.269842960906344E-001
 0.273460779370060E-001
 0.277289565199168E-001
 0.212476291317527E-001
 0.202667450446425E-001
 0.232326073185804E-001
 0.215357642791811E-001
 0.250387953221994E-001
 0.267044717454795E-001
 0.311456154417964E-001
 0.275351664122926E-001
 0.173641115590673E-001
 0.122150849056145E-001
 0.131921863948915E-001
 0.142073086856328E-001
 0.296571360775351E-001
 0.312788866960118E-001
 0.412341141066760E-001
 0.354565782948903E-001
 0.151431361473102E-001
 0.126188860490607E-001
 0.120373462369911E-001
 0.132519432908375E-001
 0.157474330184178E-001
 0.158829097442202E-001
 0.157106965394540E-001
 0.157926520325026E-001
 0.128117622488332E-001
 0.123300731837894E-001
 0.117678949791737E-001
 0.122760335883303E-001
 0.153848769727458E-001
 0.148202636881271E-001
 0.154903507359675E-001
 0.152430058399660E-001
 0.136643666525977E-001
 0.107263466879879E-001
 0.157774021129744E-001
 0.136221356317768E-001
 0.158418370656397E-001
 0.162978755506401E-001
 0.160541291855083E-001
 0.160640948068558E-001
 0.169611389527694E-001
 0.162598284860828E-001
 0.167965192772089E-001
 0.166418382034168E-001
 0.542688712676247E-001
 0.534532238426378E-001
 0.648201608379756E-001
 0.584705003086186E-001
 0.155024787257099E-001
 0.156338532700319E-001
 0.155451428550105E-001
 0.155512699848232E-001
 0.156684295110496E-001
 0.164367898262599E-001
 0.157689060026925E-001
 0.160068645132222E-001
 0.156194366454380E-001
 0.154760830416567E-001
 0.155325925363652E-001
 0.155350217994763E-001
 0.134903501236326E-001
 0.146285605162884E-001
 0.146187171335171E-001
 0.140885160295473E-001
 0.783263026110799E-001
 0.773042355108656E-001
 0.806223081367751E-001
 0.786297106667969E-001
 0.162854908285001E-001
 0.172719247185897E-001
 0.156435074649982E-001
 0.162501198494441E-001
 0.233234785584589E-001
 0.202411650798368E-001
 0.251243955790409E-001
 0.229096839149757E-001
 0.144425159293215E-001
 0.154660242068718E-001
 0.148631630407507E-001
 0.148970639952149E-001
 0.178446544342918E-001
 0.175764628217153E-001
 0.205035842775809E-001
 0.185815317530232E-001
 0.215711454211249E-001
 0.195251913062120E-001
 0.191097579628633E-001
 0.200726520518190E-001
 0.253319660101177E-001
 0.208075262212906E-001
 0.254311402954285E-001
 0.236415545485091E-001
 0.147710146019647E-001
 0.154788913738720E-001
 0.156488129011403E-001
 0.150758372550701E-001
 0.168544975067492E-001
 0.162845448991122E-001
 0.159482163413581E-001
 0.163601356823931E-001
 0.168687646130095E-001
 0.183250094129176E-001
 0.180429803554431E-001
 0.176654693494725E-001
 0.136303473540441E-001
 0.140548493531702E-001
 0.143169551133463E-001
 0.141131009837943E-001
 0.468558023539965E-001
 0.349534629766348E-001
 0.510375381556029E-001
 0.444704772186111E-001
 0.390066289027110E-001
 0.391913045927848E-001
 0.481547257490779E-001
 0.416224363179808E-001
 0.173807182259016E-001
 0.180966442573182E-001
 0.168138729836656E-001
 0.173894915766505E-001
 0.417548433325766E-001
 0.391548585052994E-001
 0.446331361220486E-001
 0.417773651493679E-001
 0.193100707819065E-001
 0.195912545685452E-001
 0.227292172838375E-001
 0.205583189561789E-001
 0.291291263015194E-001
 0.264265030007288E-001
 0.230847930248414E-001
 0.253913782543601E-001
 0.159637829904317E-001
 0.155293930170631E-001
 0.171328257306521E-001
 0.163573779664481E-001
 0.126389448061382E-001
 0.138276025623730E-001
 0.133271709644048E-001
 0.132451764347709E-001
 0.176963122786518E-001
 0.193651735675291E-001
 0.215052101712370E-001
 0.193310889657544E-001
 0.613532458841138E-001
 0.530953871735929E-001
 0.433802240483545E-001
 0.534451102650148E-001
 0.713605334670415E-001
 0.860849277977561E-001
 0.856761127812965E-001
 0.799356200107085E-001
 0.217055701030890E-001
 0.285657391259782E-001
 0.427982127308590E-001
 0.325770075526722E-001
 0.690700784825771E-001
 0.763498571774150E-001
 0.793681743131627E-001
 0.740203994207319E-001
 0.405279720319349E-001
 0.486767314963605E-001
 0.462725952998872E-001
 0.449814264725481E-001
 0.632007558618220E-001
 0.431018992240231E-001
 0.515571729247082E-001
 0.504276723579929E-001
 0.265643472104108E-001
 0.329400887029802E-001
 0.335716133476368E-001
 0.308083948934391E-001
 0.281791894790532E-001
 0.257570531706082E-001
 0.321954593713390E-001
 0.285080626792762E-001
 0.171122387645370E-001
 0.188008828612338E-001
 0.195990555011132E-001
 0.184892414023293E-001
 0.336308463313295E-001
 0.361645734761163E-001
 0.388929946887260E-001
 0.361515530304669E-001
 0.194153296442880E-001
 0.177267602924041E-001
 0.168049728720879E-001
 0.177541245340350E-001
 0.237742032219822E-001
 0.227546766221726E-001
 0.200450893206886E-001
 0.219569318964309E-001
 0.253568083390347E-001
 0.209737157071708E-001
 0.232257837211732E-001
 0.230012202946639E-001
 0.303633110984434E-001
 0.347471824514120E-001
 0.349618310184754E-001
 0.333030488951536E-001
 0.446830603755504E-001
 0.506902425003576E-001
 0.471327870642052E-001
 0.472824944744077E-001
 0.165858153367896E-001
 0.153107158991263E-001
 0.157818301672053E-001
 0.159947341455488E-001
 0.281963889052897E-001
 0.332947181742373E-001
 0.312598853080187E-001
 0.303988018181900E-001
 0.116506324987796E-001
 0.121250550765323E-001
 0.112693082690790E-001
 0.117624392918738E-001
 0.130641610165547E-001
 0.126518104661608E-001
 0.122826992991874E-001
 0.124968001352620E-001
 0.141931489472457E-001
 0.130985642739147E-001
 0.134040859582578E-001
 0.136674162797893E-001
 0.151309316015631E-001
 0.146432310892007E-001
 0.138042445859800E-001
 0.146233362589986E-001
 0.298341354848906E-001
 0.283569883534065E-001
 0.269725525023601E-001
 0.283908424638462E-001
 0.112294924022798E-001
 0.108545673517432E-001
 0.100143266435395E-001
 0.105377074311318E-001
 0.180838186837800E-001
 0.185139380310602E-001
 0.168721298162629E-001
 0.175099858211602E-001
 0.169262269793541E-001
 0.153664818513977E-001
 0.153116244599658E-001
 0.159613654664794E-001
 0.139797672395010E-001
 0.148823608689483E-001
 0.153319562728499E-001
 0.145537011415246E-001
 0.722108436652084E-001
 0.551079734341798E-001
 0.590567455416634E-001
 0.653906374576737E-001
 0.301546138165492E-001
 0.425184203399553E-001
 0.278817268929062E-001
 0.342721432451240E-001
 0.162692550037627E-001
 0.139423934335358E-001
 0.149965692418054E-001
 0.149883918294156E-001
 0.133927865410003E-001
 0.143162223575435E-001
 0.132237461589388E-001
 0.134446871199218E-001
 0.109963430148375E-001
 0.117480923165666E-001
 0.101403106336896E-001
 0.108216873384951E-001
 0.141940746147532E-001
 0.132952173459261E-001
 0.130325691589300E-001
 0.136108431471644E-001
 0.125207570526260E-001
 0.127722868991118E-001
 0.116916810804385E-001
 0.121640416001517E-001
 0.123174854599924E-001
 0.114914125097001E-001
 0.126124732047108E-001
 0.122274374535019E-001
 0.451695926743297E-001
 0.294082110544123E-001
 0.212122176809231E-001
 0.298670991769112E-001
 0.473974541045174E-001
 0.362342459256725E-001
 0.477527548637770E-001
 0.420831330838248E-001
 0.164329717792409E-001
 0.149192114510008E-001
 0.168822652891017E-001
 0.159896863060017E-001
 0.183033310422078E-001
 0.199193144401223E-001
 0.206871546765302E-001
 0.193822854405027E-001
 0.149353522333174E-001
 0.139785431672912E-001
 0.142402294879124E-001
 0.144841616089892E-001
 0.143566422925594E-001
 0.150569184710183E-001
 0.150060863723859E-001
 0.147332951245101E-001
 0.148838497287419E-001
 0.155178833339254E-001
 0.152173397972232E-001
 0.152304921658373E-001
 0.157014250386095E-001
 0.151000607625809E-001
 0.161331636423147E-001
 0.156391828010860E-001
 0.155885148486646E-001
 0.156646581832879E-001
 0.156782661090714E-001
 0.156223406024356E-001
 0.153535040927250E-001
 0.154732078188074E-001
 0.154739266923074E-001
 0.154025680733446E-001
 0.154414647891819E-001
 0.153680812934607E-001
 0.154635256497957E-001
 0.154443552509071E-001
 0.155663677531977E-001
 0.155010571368507E-001
 0.153563205853102E-001
 0.154895170697130E-001
 0.112193582633002E-001
 0.134473149591975E-001
 0.132020224440181E-001
 0.124354868868672E-001
 0.142332058124040E-001
 0.150859513250053E-001
 0.156913970242753E-001
 0.150126372065659E-001
 0.724158452398313E-001
 0.712431665124748E-001
 0.674900589644616E-001
 0.706749791789861E-001
 0.417260226839719E-001
 0.443566139158854E-001
 0.397209728849405E-001
 0.418717628720993E-001
 0.522388336349562E-001
 0.493058745296048E-001
 0.467429144013165E-001
 0.491777846150840E-001
 0.863898683748488E-001
 0.817715300867243E-001
 0.810493421769754E-001
 0.839945477705858E-001
 0.507191812368850E-001
 0.577224178489708E-001
 0.541836739069509E-001
 0.541425115833470E-001
 0.252668900402941E-001
 0.257918729760655E-001
 0.273754759403405E-001
 0.260977763680070E-001
 0.238513524525836E-001
 0.220859262288960E-001
 0.245034357271716E-001
 0.235068840071722E-001
 0.471576377626292E-001
 0.387273377546392E-001
 0.388801666036851E-001
 0.411285154047071E-001
 0.628139490707298E-001
 0.683564311683574E-001
 0.586385371143932E-001
 0.627109226484543E-001
 0.404253432370570E-001
 0.448390720511164E-001
 0.435600067445740E-001
 0.426048421576488E-001
 0.446023478271014E-001
 0.476373538524210E-001
 0.508929612536770E-001
 0.476736378603795E-001
 0.540822582677450E-001
 0.494085417023536E-001
 0.529886373108746E-001
 0.522274057547823E-001
 0.515815667219299E-001
 0.554214972946100E-001
 0.540398497357791E-001
 0.533864423363436E-001
 0.408883087404484E-001
 0.356869249346121E-001
 0.377793890567922E-001
 0.382062798359941E-001
 0.571504420880766E-001
 0.564676282805646E-001
 0.616032155420469E-001
 0.581241104694575E-001
 0.336469255024838E-001
 0.328288527571114E-001
 0.360734714656283E-001
 0.339183724349239E-001
 0.245704698612475E-001
 0.212982531905673E-001
 0.204516053610579E-001
 0.221645822327524E-001
 0.373627079278776E-001
 0.341423551418368E-001
 0.390265080199392E-001
 0.366471989185740E-001
 0.225268096659920E-001
 0.191283357973510E-001
 0.207677833331992E-001
 0.207204391424659E-001
 0.310493180823061E-001
 0.321144552951856E-001
 0.297552604613917E-001
 0.308723069938788E-001
 0.226476326703280E-001
 0.260251882804611E-001
 0.252371633798819E-001
 0.242012415821511E-001
 0.325415740628004E-001
 0.271559951317675E-001
 0.285271423815641E-001
 0.295181911146283E-001
 0.810320235339667E-001
 0.805330616065335E-001
 0.804460130812735E-001
 0.808719659508686E-001
 0.659491041137249E-001
 0.681326006104702E-001
 0.654077074108939E-001
 0.660700157477215E-001
 0.653733583097913E-001
 0.658503681497681E-001
 0.697644423160923E-001
 0.666959766097994E-001
 0.516288429200121E-001
 0.546320608016397E-001
 0.558325695515449E-001
 0.536014186277643E-001
 0.880384144361485E-001
 0.848314100148608E-001
 0.835908954114469E-001
 0.857853653196330E-001
 0.601296210136187E-001
 0.770274631404766E-001
 0.706128550999765E-001
 0.660550901792686E-001
 0.765398947951547E-001
 0.795011271479436E-001
 0.791469358844037E-001
 0.786331848184584E-001
 0.590641220765082E-001
 0.679143158268738E-001
 0.640678474578219E-001
 0.639805455178089E-001
 0.592260881001064E-001
 0.706958839958551E-001
 0.629298599882138E-001
 0.644747951326738E-001
 0.819200508152114E-001
 0.825196624941432E-001
 0.747728695047963E-001
 0.833448699594871E-001
 0.825363121736892E-001
 0.829890500772907E-001
 0.820155784393662E-001
 0.829717043659581E-001
 0.945172496979670E-001
 0.923142819687302E-001
 0.944565193978091E-001
 0.939722492407977E-001
 0.677782991024895E-001
 0.774666706759500E-001
 0.724107389193931E-001
 0.735895089524299E-001
 0.814871371690523E-001
 0.815498727019141E-001
 0.806424115896286E-001
 0.812331529440711E-001
 0.794239580180049E-001
 0.805989290928040E-001
 0.806750425269125E-001
 0.801584709277749E-001
 0.819200646098710E-001
 0.834105275624416E-001
 0.846542409839864E-001
 0.836599229369956E-001
 0.790726152359083E-001
 0.821416809900518E-001
 0.808563903921956E-001
 0.801370371443989E-001
 0.814904769670780E-001
 0.820176173229104E-001
 0.840653306422088E-001
 0.825491906779189E-001
 0.824540789597290E-001
 0.813639007949856E-001
 0.845785812916032E-001
 0.826214946798701E-001
 0.744532464011752E-001
 0.793454234179744E-001
 0.753969029191734E-001
 0.759849698657001E-001
 0.753013786837804E-001
 0.790300787793686E-001
 0.797927638532717E-001
 0.783723999005570E-001
 0.712931369337795E-001
 0.725963551292894E-001
 0.674342285356969E-001
 0.705567213150035E-001
 0.878286835925335E-001
 0.863913662658431E-001
 0.851285080117272E-001
 0.861991241036215E-001
 0.929975462663151E-001
 0.918271545475761E-001
 0.967836259791764E-001
 0.932052844236597E-001
 0.784931360666967E-001
 0.767695274811255E-001
 0.821412611145864E-001
 0.785613788286032E-001
 0.640897561592335E-001
 0.598628453259735E-001
 0.630043904102556E-001
 0.624781649835506E-001
 0.789271900256295E-001
 0.754827492554919E-001
 0.748087673121740E-001
 0.764413547038830E-001
 0.742113627766157E-001
 0.751813159418532E-001
 0.781792688252397E-001
 0.757219658239336E-001
 0.174836039934416E+000
 0.146879159043711E+000
 0.160622832159093E+000
 0.163936656394836E+000
 0.164972953590364E+000
 0.149527115796524E+000
 0.158664434016548E+000
 0.159187779989818E+000
 0.110647790795855E+000
 0.117053166014834E+000
 0.114833311133144E+000
 0.114437137428332E+000
 0.910768104585125E-001
 0.873141711297056E-001
 0.918851124121420E-001
 0.904494925264014E-001
 0.114251722962183E+000
 0.122666484011129E+000
 0.111541183559002E+000
 0.117282624551495E+000
 0.110529704029714E+000
 0.102773954754028E+000
 0.106753076961707E+000
 0.107865472656718E+000
 0.901191377386029E-001
 0.871551205920151E-001
 0.888962300938956E-001
 0.894426942462810E-001
 0.909128241086368E-001
 0.918768576032278E-001
 0.877423760361399E-001
 0.900406644529223E-001
 0.996161985100883E-001
 0.998906281146007E-001
 0.980603117520726E-001
 0.992597568602368E-001
 0.976007676996985E-001
 0.101974717119851E+000
 0.988690641591437E-001
 0.994293900368914E-001
 0.921748632919202E-001
 0.967172444500042E-001
 0.974783219753635E-001
 0.958057335516734E-001
 0.100079062020762E+000
 0.943324052458091E-001
 0.985681026414704E-001
 0.980530839512622E-001
 0.126945027979517E+000
 0.151079128081361E+000
 0.120582603339076E+000
 0.134758640532138E+000
 0.882905369909450E-001
 0.916982767745202E-001
 0.853928451927556E-001
 0.891470828287192E-001
 0.485084252450652E-001
 0.478006383142963E-001
 0.440600209040534E-001
 0.471196913434142E-001
 0.105055702964284E+000
 0.115438776521267E+000
 0.106981826735620E+000
 0.108282902029226E+000
 0.104546284892784E+000
 0.110282524593355E+000
 0.103512133660827E+000
 0.106879978136042E+000
 0.713138157568017E-001
 0.724507509996951E-001
 0.682743549303685E-001
 0.706120488753920E-001
 0.949606943460153E-001
 0.936892620822662E-001
 0.996974061052487E-001
 0.954543902537797E-001
 0.818213578059742E-001
 0.795956574388303E-001
 0.830945620537885E-001
 0.817265298798648E-001
 0.100453807395966E+000
 0.964166483802445E-001
 0.101439563341856E+000
 0.991931812566667E-001
 0.949393610418293E-001
 0.985857812747369E-001
 0.942246709607812E-001
 0.956788464982545E-001
 0.100765314712534E+000
 0.985341956350444E-001
 0.922195995099569E-001
 0.965394580947283E-001
 0.123926463608264E+000
 0.124751020898146E+000
 0.135138998621358E+000
 0.127639739595920E+000
 0.106076203130546E+000
 0.113151827814082E+000
 0.116420600350606E+000
 0.112841274619394E+000
 0.954590851584300E-001
 0.100100753910792E+000
 0.101424546233853E+000
 0.993291774551135E-001
 0.127809366835458E+000
 0.135647340894193E+000
 0.125831950890295E+000
 0.130009735678541E+000
 0.128006117178296E+000
 0.138784120035898E+000
 0.138814151221914E+000
 0.135246585897953E+000
 0.849060899862097E-001
 0.980357429641076E-001
 0.106000462572631E+000
 0.102753011764451E+000
 0.856451613310104E-001
 0.893759645920628E-001
 0.844274609248136E-001
 0.861700114970124E-001
 0.211766667598198E+000
 0.191809828848776E+000
 0.191442947201159E+000
 0.199856732983211E+000
 0.109619606321840E+000
 0.118644169962873E+000
 0.117383406519355E+000
 0.115072388070308E+000
 0.635543780694235E-001
 0.596890645265474E-001
 0.633383996501338E-001
 0.616349405244692E-001
 0.986331572978297E-001
 0.905324879587668E-001
 0.931126383917810E-001
 0.947960448129063E-001
 0.794111805669622E-001
 0.852202647705127E-001
 0.859970130533212E-001
 0.836607784806643E-001
 0.841622062036272E-001
 0.783752848167708E-001
 0.815814218902400E-001
 0.814893294686634E-001
 0.847316923165539E-001
 0.899971382365913E-001
 0.875643135570142E-001
 0.871874406446938E-001
 0.653055470675913E-001
 0.679100027989318E-001
 0.655123381141742E-001
 0.659950466038710E-001
 0.747379243543751E-001
 0.774902535589067E-001
 0.795910198924626E-001
 0.775072215903702E-001
 0.822487765435900E-001
 0.770708348401637E-001
 0.808438170659297E-001
 0.805234184927807E-001
 0.678342754915020E-001
 0.720820321443309E-001
 0.697275670568602E-001
 0.698076930798334E-001
 0.705864265935205E-001
 0.690233987410165E-001
 0.667139994236317E-001
 0.686634674412083E-001
 0.581960029720851E-001
 0.575197257131868E-001
 0.615358874573114E-001
 0.589454327525351E-001
 0.745686882181511E-001
 0.791987417011653E-001