# vtk DataFile Version 3.0
Unstructured Grid
ASCII
DATASET UNSTRUCTURED_GRID
FIELD FieldData 1
TIME 1 1 float
  0.149666E+03
POINTS         2588 double
 0.000000000000000E+000 0.000000000000000E+000 0.000000000000000E+000
 0.100000000000000E+001 0.000000000000000E+000 0.000000000000000E+000
 0.100000000000000E+001 0.100000000000000E+001 0.000000000000000E+000
 0.000000000000000E+000 0.100000000000000E+001 0.000000000000000E+000
 0.125000000000000E+000 0.250000000000000E+000 0.000000000000000E+000
 0.375000000000000E+000 0.250000000000000E+000 0.000000000000000E+000
 0.375000000000000E+000 0.750000000000000E+000 0.000000000000000E+000
 0.125000000000000E+000 0.750000000000000E+000 0.000000000000000E+000
 0.625000000000000E+000 0.250000000000000E+000 0.000000000000000E+000
 0.875000000000000E+000 0.250000000000000E+000 0.000000000000000E+000
 0.875000000000000E+000 0.750000000000000E+000 0.000000000000000E+000
 0.625000000000000E+000 0.750000000000000E+000 0.000000000000000E+000
 0.100000000000000E+001 0.500000000000000E+000 0.000000000000000E+000
 0.000000000000000E+000 0.500000000000000E+000 0.000000000000000E+000
 0.500000000000000E+000 0.000000000000000E+000 0.000000000000000E+000
 0.125000000000000E+000 0.500000000000000E+000 0.000000000000000E+000
 0.000000000000000E+000 0.750000000000000E+000 0.000000000000000E+000
 0.000000000000000E+000 0.250000000000000E+000 0.000000000000000E+000
 0.000000000000000E+000 0.875000000000000E+000 0.000000000000000E+000
 0.000000000000000E+000 0.125000000000000E+000 0.000000000000000E+000
 0.000000000000000E+000 0.812500000000000E+000 0.000000000000000E+000
 0.625000000000000E-001 0.812500000000000E+000 0.000000000000000E+000
 0.125000000000000E+000 0.375000000000000E+000 0.000000000000000E+000
 0.000000000000000E+000 0.375000000000000E+000 0.000000000000000E+000
 0.125000000000000E+000 0.625000000000000E+000 0.000000000000000E+000
 0.312500000000000E-001 0.781250000000000E+000 0.000000000000000E+000
 0.000000000000000E+000 0.625000000000000E+000 0.000000000000000E+000
 0.781250000000000E-001 0.765625000000000E+000 0.000000000000000E+000
 0.364583333333333E-001 0.744791666666667E+000 0.000000000000000E+000
 0.000000000000000E+000 0.687500000000000E+000 0.000000000000000E+000
 0.312500000000000E-001 0.843750000000000E+000 0.000000000000000E+000
 0.500000000000000E+000 0.100000000000000E+001 0.000000000000000E+000
 0.117915518486872E+000 0.805415518486872E+000 0.000000000000000E+000
 0.531250000000000E-001 0.896875000000000E+000 0.000000000000000E+000
 0.128125000000000E+000 0.862500000000000E+000 0.000000000000000E+000
 0.852352799227800E-001 0.850726351351351E+000 0.000000000000000E+000
 0.250000000000000E+000 0.750000000000000E+000 0.000000000000000E+000
 0.000000000000000E+000 0.937500000000000E+000 0.000000000000000E+000
 0.250000000000000E+000 0.100000000000000E+001 0.000000000000000E+000
 0.125000000000000E+000 0.100000000000000E+001 0.000000000000000E+000
 0.559955578663221E-001 0.864626829113867E+000 0.000000000000000E+000
 0.201656717908302E+000 0.819893736067327E+000 0.000000000000000E+000
 0.181985294117647E-001 0.906250000000000E+000 0.000000000000000E+000
 0.157158578892515E+000 0.827852167423944E+000 0.000000000000000E+000
 0.173219498992632E+000 0.789273026175030E+000 0.000000000000000E+000
 0.190370748034901E+000 0.885171153579592E+000 0.000000000000000E+000
 0.163362285670037E+000 0.862539079232243E+000 0.000000000000000E+000
 0.145689809422689E+000 0.911060496538305E+000 0.000000000000000E+000
 0.260169562085505E+000 0.921822264266383E+000 0.000000000000000E+000
 0.999952720236157E-001 0.900131729869707E+000 0.000000000000000E+000
 0.181336648989602E+000 0.921080529637299E+000 0.000000000000000E+000
 0.187500000000000E+000 0.100000000000000E+001 0.000000000000000E+000
 0.625000000000000E-001 0.100000000000000E+001 0.000000000000000E+000
 0.391044682108720E-001 0.939348618511729E+000 0.000000000000000E+000
 0.987901813178879E-001 0.953497897705852E+000 0.000000000000000E+000
 0.127430470763290E+000 0.938015442955272E+000 0.000000000000000E+000
 0.735147503821561E-001 0.927156548383149E+000 0.000000000000000E+000
 0.187500000000000E+000 0.750000000000000E+000 0.000000000000000E+000
 0.937500000000000E-001 0.986976003387646E+000 0.000000000000000E+000
 0.647068558612996E-001 0.964310770745732E+000 0.000000000000000E+000
 0.287348941263244E-001 0.975594752089430E+000 0.000000000000000E+000
 0.140548246895551E+000 0.780148342865875E+000 0.000000000000000E+000
 0.625000000000000E-001 0.656250000000000E+000 0.000000000000000E+000
 0.885416666666667E-001 0.718750000000000E+000 0.000000000000000E+000
 0.125000000000000E+000 0.687500000000000E+000 0.000000000000000E+000
 0.418778153153153E-001 0.701096693284193E+000 0.000000000000000E+000
 0.130000591648319E-001 0.718750000000000E+000 0.000000000000000E+000
 0.886787280701754E-001 0.682017543859649E+000 0.000000000000000E+000
 0.324539302647226E+000 0.874753539998500E+000 0.000000000000000E+000
 0.220842706957930E+000 0.911928394103011E+000 0.000000000000000E+000
 0.255656705174793E+000 0.856653769033302E+000 0.000000000000000E+000
 0.230240640268531E+000 0.957679342037283E+000 0.000000000000000E+000
 0.247273788001812E+000 0.889974781313083E+000 0.000000000000000E+000
 0.287822583654814E+000 0.892090285129540E+000 0.000000000000000E+000
 0.375000000000000E+000 0.100000000000000E+001 0.000000000000000E+000
 0.312500000000000E+000 0.100000000000000E+001 0.000000000000000E+000
 0.296339471848887E+000 0.927737349884604E+000 0.000000000000000E+000
 0.272754945277513E+000 0.963602684427479E+000 0.000000000000000E+000
 0.218750000000000E+000 0.100000000000000E+001 0.000000000000000E+000
 0.156250000000000E+000 0.970185411869689E+000 0.000000000000000E+000
 0.193067439035452E+000 0.962879965079150E+000 0.000000000000000E+000
 0.366022419631980E+000 0.930828672570042E+000 0.000000000000000E+000
 0.331917636626289E+000 0.912676918057824E+000 0.000000000000000E+000
 0.218750000000000E+000 0.780050991479902E+000 0.000000000000000E+000
 0.270314960374965E+000 0.802399429390985E+000 0.000000000000000E+000
 0.239019213447470E+000 0.823051378525603E+000 0.000000000000000E+000
 0.312500000000000E+000 0.750000000000000E+000 0.000000000000000E+000
 0.297176692881550E+000 0.838764170920897E+000 0.000000000000000E+000
 0.316491084060399E+000 0.796393690767677E+000 0.000000000000000E+000
 0.343750000000000E+000 0.770680188507291E+000 0.000000000000000E+000
 0.409908719410776E+000 0.836702006091634E+000 0.000000000000000E+000
 0.362591033297072E+000 0.817958948082628E+000 0.000000000000000E+000
 0.401086171766563E+000 0.789875587437421E+000 0.000000000000000E+000
 0.371341896832358E+000 0.864966336467817E+000 0.000000000000000E+000
 0.333452116450771E+000 0.839580614538559E+000 0.000000000000000E+000
 0.625000000000000E+000 0.500000000000000E+000 0.000000000000000E+000
 0.497245004128187E+000 0.796002674320860E+000 0.000000000000000E+000
 0.375000000000000E+000 0.625000000000000E+000 0.000000000000000E+000
 0.448383797292392E+000 0.805208595628784E+000 0.000000000000000E+000
 0.410140101146819E+000 0.755482168792868E+000 0.000000000000000E+000
 0.466643384891561E+000 0.767852445997818E+000 0.000000000000000E+000
 0.476967665188550E+000 0.732032311892081E+000 0.000000000000000E+000
 0.540753556856103E+000 0.747012385328872E+000 0.000000000000000E+000
 0.490851671729155E+000 0.896339978179292E+000 0.000000000000000E+000
 0.457989751325779E+000 0.856193010026991E+000 0.000000000000000E+000
 0.477617377726983E+000 0.826097842173926E+000 0.000000000000000E+000
 0.546397010943533E+000 0.849506899903764E+000 0.000000000000000E+000
 0.514994092174850E+000 0.829026377565149E+000 0.000000000000000E+000
 0.557956128164421E+000 0.797467818442289E+000 0.000000000000000E+000
 0.513053884697208E+000 0.866316721845202E+000 0.000000000000000E+000
 0.531719458287368E+000 0.903340824708691E+000 0.000000000000000E+000
 0.750000000000000E+000 0.100000000000000E+001 0.000000000000000E+000
 0.503122841217304E+000 0.947490703764094E+000 0.000000000000000E+000
 0.428509525448068E+000 0.913846660476909E+000 0.000000000000000E+000
 0.625000000000000E+000 0.100000000000000E+001 0.000000000000000E+000
 0.410139362032626E+000 0.877461197108989E+000 0.000000000000000E+000
 0.393550593852374E+000 0.908666538512922E+000 0.000000000000000E+000
 0.455853425536278E+000 0.891464570133054E+000 0.000000000000000E+000
 0.465565809489837E+000 0.931223943045515E+000 0.000000000000000E+000
 0.430803944763131E+000 0.957152995135723E+000 0.000000000000000E+000
 0.361862549463301E+000 0.897277191535820E+000 0.000000000000000E+000
 0.281250000000000E+000 0.768022264880110E+000 0.000000000000000E+000
 0.528016132294562E+000 0.779515446907155E+000 0.000000000000000E+000
 0.582435077211395E+000 0.760961532636893E+000 0.000000000000000E+000
 0.594258447236559E+000 0.718750000000000E+000 0.000000000000000E+000
 0.513210480866922E+000 0.721000388231171E+000 0.000000000000000E+000
 0.625000000000000E+000 0.625000000000000E+000 0.000000000000000E+000
 0.293099715520438E+000 0.681007179427844E+000 0.000000000000000E+000
 0.625000000000000E+000 0.687500000000000E+000 0.000000000000000E+000
 0.375000000000000E+000 0.500000000000000E+000 0.000000000000000E+000
 0.588365877190365E+000 0.682207614843486E+000 0.000000000000000E+000
 0.544806337802789E+000 0.700097114505632E+000 0.000000000000000E+000
 0.473117607324743E+000 0.654334216996401E+000 0.000000000000000E+000
 0.507976816774602E+000 0.678758937084175E+000 0.000000000000000E+000
 0.471770128441152E+000 0.693345422145358E+000 0.000000000000000E+000
 0.540484989053884E+000 0.595274872726202E+000 0.000000000000000E+000
 0.434924684287812E+000 0.717988149163748E+000 0.000000000000000E+000
 0.438762107036035E+000 0.672676424045669E+000 0.000000000000000E+000
 0.514022824851611E+000 0.633041943182225E+000 0.000000000000000E+000
 0.375000000000000E+000 0.687500000000000E+000 0.000000000000000E+000
[...]
CELL_DATA         5036
SCALARS tdens double 1
LOOKUP_TABLE default
 0.277861863914233E-009
 0.165571146239728E-008
 0.429935439918498E-009
 0.354223109193079E-009
 0.152042921710065E-004
 0.458418004994462E-005
 0.558422000922893E-005
 0.522328187600481E-005
 0.596157213588436E-001
 0.904606012034103E-001
 0.980311458476719E-001
 0.949373801481950E-001
 0.185917034511513E-009
 0.645772487540402E-010
 0.144936895183162E-009
 0.146762229140484E-009
 0.408398886544608E-009
 0.359492460499214E-009
 0.225511428821237E-009
 0.299048013673958E-009
 0.105950982242186E-010
 0.927608817769090E-011
 0.234937713737235E-011
 0.769177154868186E-011
 0.133475263523516E-001
 0.105588522394601E-001
 0.561617596025690E-001
 0.120009555592051E-001
 0.111803028789202E+000
 0.138567162179160E+000
 0.103417475171008E+000
 0.110827766239113E+000
 0.147514570744010E+000
 0.178653082433651E+000
 0.183076430993010E+000
 0.181272157466556E+000
 0.292270520683974E-007
 0.233464456388979E-007
 0.161870549961387E-007
 0.247331069277544E-007
 0.749427430634265E-006
 0.170028006073487E-005
 0.163559166916667E-005
 0.167942912929361E-005
 0.478935716743970E-004
 0.112780816177824E-003
 0.823019819276233E-004
 0.791511568448129E-004
 0.137511952885001E-005
 0.402423114071699E-006
 0.587049519956422E-007
 0.336021908201961E-006
 0.131451167496563E+000
 0.770535727497726E-001
 0.100091058550373E+000
 0.869873326165854E-001
 0.785524006589223E-002
 0.206233727270530E-002
 0.326921153063835E-002
 0.296863025317362E-002
 0.131447012489544E+000
 0.139561587270503E+000
 0.194939964932912E+000
 0.138376456906348E+000
 0.164614336686508E-006
 0.439485718260887E-006
 0.140225068217121E-006
 0.163665869363027E-006
 0.730632635370345E-005
 0.820281901402876E-002
 0.694043779943417E-003
 0.819501539794922E-003
 0.144424398705608E-009
 0.114943658865465E-009
 0.125658882868807E-009
 0.126111250554100E-009
 0.136154706834086E+000
 0.138621670501129E+000
 0.116530889299113E+000
 0.137854820861191E+000
 0.205283211403648E-003
 0.530507750073671E-003
 0.106875430691337E-003
 0.198200528428885E-003
 0.702689960504786E-011
 0.665424221125306E-011
 0.679572063671454E-011
 0.677066099358332E-011
 0.145012887939904E+000
 0.143070398080037E+000
 0.134567992641654E+000
 0.143277539685871E+000
 0.987928285895885E-011
 0.733671909123407E-011
 0.712021172098887E-011
 0.787711109301820E-011
 0.141250506032789E+000
 0.150556651728325E+000
 0.149999085291063E+000
 0.150748237721731E+000
 0.104640832618065E+000
 0.114591824126910E+000
 0.771906878813378E-001
 0.107195358563820E+000
 0.361973620818451E-010
 0.340861090536738E-009
 0.254805851201345E-009
 0.204459164853232E-009
 0.121480407881111E-002
 0.154055939368895E-003
 0.100154085614205E-002
 0.106393372344813E-002
 0.258015090304377E-001
 0.597921383353000E-002
 0.274479059662127E-001
 0.257080410218416E-001
 0.205062358657259E-005
 0.688946496090519E-006
 0.917112960254000E-006
 0.874456474962694E-006
 0.503728105955592E-007
 0.271409067286499E-007
 0.925845584986104E-007
 0.483209244919839E-007
 0.435612037089646E-006
 0.141095608893835E-005
 0.122463695314818E-004
 0.990273174962821E-006
 0.492845287132090E-009
 0.152703050273729E-009
 0.587754979097382E-011
 0.192862652147524E-010
 0.880362921410052E-005
 0.521960149839405E-002
 0.750660249780833E-002
 0.765664833550842E-002
 0.124478238619045E-009
 0.155213841950957E-009
 0.853292656611175E-010
 0.124947189465784E-009
 0.600884454945896E-011
 0.632260137481732E-011
 0.654145452724349E-011
 0.636176348029329E-011
 0.848979609437646E-009
 0.301444002308250E-009
 0.267774659319865E-009
 0.353080103895205E-009
 0.926039851923506E-011
 0.738610299575006E-011
 0.743889426892239E-011
 0.776467012142419E-011
 0.312796562091455E-011
 0.223418539535470E-010
 0.111800440500265E-010
 0.479064648536385E-011
 0.539001212970862E-011
 0.564238992042469E-011
 0.617084440161286E-011
 0.544301187791710E-011
 0.105137371822595E-010
 0.671991214016635E-011
 0.717892090386417E-011
 0.809328643699553E-011
 0.324648826142383E-001
 0.492205142187102E-001
 0.576418203752786E-001
 0.519863309720648E-001
 0.820628553496066E-011
 0.105586063515433E-010
 0.874854938436409E-011
 0.906747004118732E-011
 0.777672221873121E-011
 0.117295817800245E-010
 0.103179304447726E-010
 0.931909894504475E-011
 0.673488302669442E-011
 0.719797087443554E-011
 0.680586744935898E-011
 0.686875312442185E-011
 0.123630962976772E-010
 0.244212533666576E-010
 0.314529506074794E-010
 0.235590101564508E-010
 0.893747754005224E-004
 0.177015658104553E-003
 0.182947975328996E-003
 0.189144163676177E-003
 0.596446173620444E-010
 0.238227166487249E-009
 0.495793569199747E-010
 0.711307735566808E-010
 0.529791229454263E-009
 0.256652555449657E-002
 0.103228661543610E-001
 0.529806491049430E-002
 0.813287316583689E-011
 0.191498402991487E-010
 0.183442124338127E-010
 0.152331128926185E-010
 0.234137028679696E-010
 0.124255099647891E-010
 0.771517973095989E-010
 0.208178277304401E-010
 0.228830736907196E-007
 0.314244041437825E-008
 0.219027779467277E-008
 0.306404058786300E-008
 0.431510458804857E-007
 0.126601079089724E-008
 0.353532854135637E-007
 0.333701594716185E-007
 0.809323896548730E-011
 0.112850540886799E-010
 0.173446179299335E-010
 0.115927322929064E-010
 0.186454706841273E-010
 0.242231857491272E-010
 0.131053748612489E-010
 0.190711982050228E-010
 0.691257056029158E-010
 0.222076465154494E-009
 0.322803971373401E-009
 0.221162141968927E-009
 0.773702140261854E-011
 0.715476766794976E-011
 0.152321251648109E-010
 0.859010038322876E-011
 0.514106860165966E-001
 0.338488523325135E-001
 0.636910471608543E-001
 0.398591231152433E-001
 0.320928930817850E-003
 0.669535234977664E-003
 0.271772381452232E-002
 0.661290915690545E-003
 0.316340666911197E-010
 0.137627175952248E-009
 0.463054912595288E-010
 0.506349755324173E-010
 0.982777643022738E-004
 0.759717080833679E-004
 0.348106103186747E-003
 0.864028126448466E-004
 0.187631697633269E-008
 0.117672718093256E-008
 0.279063858650039E-007
 0.223520442749990E-008
 0.651163609362371E-002
 0.218379763786704E-001
 0.837537127581074E-003
 0.782673528950516E-002
 0.132779147459181E-009
 0.882520428072415E-010
 0.309428059683177E-009
 0.143039392055585E-009
 0.352335569926582E-011
 0.600450217383097E-011
 0.558398879074058E-011
 0.498073199435112E-011
 0.110697080357754E-010
 0.180303194826485E-010
 0.422819813906203E-010
 0.221001778663220E-010
 0.336462974505453E-001
 0.924076676744229E-002
 0.321075476907260E-002
 0.859043789829619E-002
 0.876063300118193E-001
 0.114870481512768E+000
 0.108095062811698E+000
 0.993744377787745E-001
 0.148015242022598E-001
 0.291785625798205E-001
 0.487055415227851E-001
 0.382227506028938E-001
 0.364105434280497E-001
 0.677390186458096E-001
 0.902302163820226E-001
 0.663421109419426E-001
 0.961931186804683E-004
 0.178768385796021E-002
 0.584017765336602E-003
 0.735588158450412E-003
 0.306887227207619E-001
 0.305614335901158E-002
 0.159092022712336E-001
 0.179201879345786E-001
 0.366547579700886E-006
 0.764647784878335E-005
 0.778825416164984E-005
 0.687845799491960E-005
 0.102649985425045E-005
 0.399267095048120E-006
 0.746920448964485E-005
 0.104256510611924E-005
 0.184916500030455E-009
 0.681118756511780E-009
 0.746362713282215E-009
 0.617068892644582E-009
 0.119513066403902E-005
 0.110490253370980E-004
 0.165878441331325E-004
 0.105452738373110E-004
 0.448296322683860E-009
 0.811279901287834E-010
 0.141096332095703E-009
 0.171121559431688E-009
 0.295341859809662E-007
 0.274053986649778E-007
 0.244655834567226E-008
 0.244197053865724E-007
 0.134046690821650E-006
 0.594781074649811E-008
 0.618003214630544E-007
 0.658197762891414E-007
 0.125767380454052E-005
 0.827347413617918E-005
 0.608229015377253E-005
 0.738823746723073E-005
 0.128488930280121E-003
 0.327030789310253E-003
 0.140382133884340E-003
 0.143861420956165E-003
 0.417441359729059E-010
 0.263649976426798E-010
 0.627622541794832E-010
 0.416330894976162E-010
 0.205458807709939E-006
 0.399506358911406E-005
 0.624380825320291E-006
 0.659045846306040E-006
 0.246916170686455E-011
 0.503288828826138E-011
 0.240047336276525E-011
 0.296025280480107E-011
 0.550515848585723E-011
 0.565461174902355E-011
 0.314409291319937E-011
 0.475156173950444E-011
 0.175874558507224E-010
 0.996027628208678E-011
 0.836137326843263E-011
 0.107013601504057E-010
 0.519247715538626E-010
 0.227174742278490E-010
 0.185454467234667E-010
 0.243355326446487E-010
 0.168467949274651E-006
 0.159465020387913E-007
 0.458235794787051E-007
 0.428263922513958E-007
 0.144858052436693E-011
 0.121591612429190E-011
 0.100000000000000E-011
 0.100000000000000E-011
 0.625775264138387E-009
 0.743483319918145E-009
 0.177744268113911E-009
 0.532947724613779E-009
 0.249414809662295E-009
 0.743108017039333E-010
 0.527487623628607E-010
 0.772570499284039E-010
 0.193901134671157E-010
 0.427955550994060E-010
 0.533482128574790E-010
 0.412709689909178E-010
 0.863863150402933E-001
 0.590928615285764E-001
 0.694762043736095E-001
 0.784961645812770E-001
 0.152697806401711E-001
 0.231524763707365E-001
 0.739716259688787E-002
 0.157598576303566E-001
 0.268368628964888E-010
 0.661189364963861E-011
 0.151757422834981E-010
 0.137114355579067E-010
 0.945914747230330E-011
 0.118236140794440E-010
 0.494846134513912E-011
 0.862016790338993E-011
 0.126437222407731E-011
 0.175330777822593E-011
 0.100000000000000E-011
 0.100000000000000E-011
 0.309012628817256E-010
 0.151660871421297E-010
 0.118113260150135E-010
 0.156945936482105E-010
 0.639597664914036E-011
 0.753933656867774E-011
 0.297820096546463E-011
 0.592923114221098E-011
 0.344003390053654E-011
 0.267396493357191E-011
 0.709653921354606E-011
 0.373411464497710E-011
 0.489221380777420E-001
 0.198205691941280E-001
 0.133115669575246E-001
 0.319472909078667E-001
 0.286480853648645E-001
 0.249089336981569E-001
 0.414602610785260E-001
 0.336536281186907E-001
 0.609716438908581E-011
 0.357133594325137E-011
 0.746764741055182E-011
 0.566059617274951E-011
 0.176323208477881E-009
 0.495466919127420E-009
 0.147488169902470E-008
 0.695733946451643E-009
 0.355790432420291E-011
 0.100000000000000E-011
 0.134674368651968E-011
 0.165172406293464E-011
 0.203069490600635E-011
 0.396523299854057E-011
 0.449403853748742E-011
 0.282609597816147E-011
 0.236648890350816E-011
 0.469430259793355E-011
 0.428075810192309E-011
 0.392763774032194E-011
 0.461638483907955E-011
 0.276066300223839E-011
 0.469961053472717E-011
 0.375980736236266E-011
 0.654634806494285E-011
 0.611182748376124E-011
 0.660977155055858E-011
 0.645475428674660E-011
 0.616454702318462E-011
 0.752219594934911E-011
 0.755931697374596E-011
 0.703340879238095E-011
 0.718744984261503E-011
 0.599641272387585E-011
 0.666339498883210E-011
 0.682115913435449E-011
 0.574303947490763E-011
 0.639535006491561E-011
 0.561668880349357E-011
 0.590595109196991E-011
 0.191996184519113E-010
 0.126872546405181E-011
 0.100000000000000E-011
 0.100000000000000E-011
 0.577589013985212E-011
 0.110331984806950E-010
 0.646261165240318E-010
 0.133839419687033E-010
 0.487389466702976E-001
 0.310924824464631E-001
 0.172705484232215E-001
 0.304366561725002E-001
 0.281367239342347E-004
 0.418016317788084E-004
 0.478410696323576E-005
 0.288901735889513E-004
 0.167794830619455E-003
 0.272929458554450E-004
 0.253571868146007E-004
 0.280774356572704E-004
 0.108907455679762E+000
 0.105091318882187E+000
 0.877894264959119E-001
 0.108565713393856E+000
 0.122444256514371E-002
 0.678942683620660E-002
 0.206065155431281E-002
 0.176815871888441E-002
 0.250309688163003E-008
 0.130976843236726E-007
 0.613908668023282E-008
 0.546496253484454E-008
 0.204967829012496E-008
 0.280207011466171E-008
 0.140094271407112E-007
 0.271891340978111E-008
 0.203788832906484E-002
 0.117378650301448E-003
 0.218588072876827E-003
 0.169674308014523E-003
 0.149637050942066E-001
 0.304338727801463E-001
 0.566457293713170E-002
 0.139975334964006E-001
 0.524763954863437E-005
 0.433126004268573E-004
 0.120959504299466E-004
 0.113635456853842E-004
 0.133411548251661E-003
 0.330538651045480E-003
 0.305491800169177E-003
 0.316435008418664E-003
 0.274584556293945E-003
 0.132889208178334E-003
 0.317812785626428E-003
 0.298021817982893E-003
 0.109702293352795E-004
 0.174007978656017E-004
 0.382036192471505E-005
 0.102982526961581E-004
 0.255238464228349E-006
 0.710469807636842E-007
 0.500023595620763E-006
 0.208129548133185E-006
 0.139204765781353E-002
 0.235549548577219E-002
 0.685929945033678E-002
 0.194775059086711E-002
 0.571499524119261E-007
 0.270795695810059E-006
 0.463114833823838E-006
 0.284347957249091E-006
 0.118033577201741E-006
 0.500963302251783E-008
 0.512184219469872E-008
 0.567139385338614E-008
 0.292970754755630E-005
 0.135390080390422E-005
 0.174282696922246E-004
 0.281746295120349E-005
 0.628338596743690E-009
 0.115345905214852E-009
 0.553501758571613E-009
 0.367080530672225E-009
 0.154510467372536E-006
 0.323233378216635E-007
 0.165938548807058E-007
 0.314070009431730E-007
 0.593146136834850E-008
 0.132276413870198E-006
 0.385839606583839E-007
 0.436498180416969E-007
 0.396301661337196E-005
 0.218876138389561E-006
 0.851991153264674E-006
 0.792294918301851E-006
 0.125328312653690E+000
 0.126052859883214E+000
 0.125551341159296E+000
 0.126680661561482E+000
 0.894223826899279E-003
 0.976425044607835E-003
 0.181184555066945E-003
 0.924831512311126E-003
 0.654533786059901E-002
 0.107128101776566E-001
 0.175037768299054E-001
 0.108651140211549E-001
 0.283066561673734E-004
 0.167630767644372E-003
 0.152800403911063E-003
 0.155068383510357E-003
 0.113230714226107E+000
 0.115728454376374E+000
 0.117805604629031E+000
 0.115493072145225E+000
 0.673529827081123E-001
 0.924721083967973E-001
 0.768879710796714E-001
 0.736375637604819E-001
 0.825326644015694E-001
 0.116670972463881E+000
 0.107298710265767E+000
 0.110955957413831E+000
 0.543025352885775E-002
 0.293669885726498E-001
 0.119689765553547E-001
 0.126722826723533E-001
 0.152777135217828E-001
 0.516571395993201E-001
 0.213894688888842E-001
 0.196760436154899E-001
 0.101561126716442E+000
 0.923374501030423E-001
 0.832121891707725E-001
 0.907894450314580E-001
 0.119463457428327E+000
 0.117293025977229E+000
 0.118630160936010E+000
 0.117246051248113E+000
 0.134757641862113E+000
 0.119317682202625E+000
 0.128278823313146E+000
 0.131316224537126E+000
 0.352359072839231E-001
 0.904151874131606E-001
 0.592786565377855E-001
 0.590748258754829E-001
 0.120278167879124E+000
 0.119660223259799E+000
 0.123171327336669E+000
 0.122568634624879E+000
 0.118783604111609E+000
 0.122693083757360E+000
 0.125120409351831E+000
 0.121167271647449E+000
 0.116650709020510E+000
 0.957188429725217E-001
 0.121442512269398E+000
 0.118675106311761E+000
 0.106398127849372E+000
 0.953780173471952E-001
 0.116166333228108E+000
 0.105909132740272E+000
 0.125798440709571E+000
 0.127861839594819E+000
 0.132247766602232E+000
 0.130350679541444E+000
 0.118152451392977E+000
 0.123856254347471E+000
 0.134499782277427E+000
 0.122516595915336E+000
 0.452911201400567E-001
 0.796983611237418E-001
 0.394599271642752E-001
 0.434116889976639E-001
 0.508473805039102E-001
 0.943166622737499E-001
 0.856092901744339E-001
 0.878111093531927E-001
 0.396998531123828E-001
 0.475566592719820E-001
 0.163204906457761E-001
 0.427166098346563E-001
 0.919517636655926E-001
 0.122726128876635E+000
 0.968327361726357E-001
 0.943182219528171E-001
 0.131308556427087E+000
 0.921758927670419E-001
 0.942215541018215E-001
 0.933390759724622E-001
 0.276422938006551E-001
 0.322323710829496E-001
 0.586757848514728E-001
 0.315527137872628E-001
 0.123882043210702E-002
 0.395194468610233E-003
 0.179828259953592E-002
 0.144270981542474E-002
 0.116295686747828E+000
 0.831247084892008E-001
 0.797641440532471E-001
 0.825784817166823E-001
 0.536546200475225E-001
 0.720797495917266E-001
 0.966533031579368E-001
 0.688786211467118E-001
 0.318430939548619E+000
 0.273093959792663E+000
 0.298931026272094E+000
 0.302174252806305E+000
 0.204653560633316E+000
 0.164899294452121E+000
 0.205008824564154E+000
 0.202327511371789E+000
 0.596133975633112E-001
 0.897830701796595E-001
 0.549013057451066E-001
 0.606444618870076E-001
 0.916738103730245E-001
 0.955513139242484E-001
 0.131140286268101E+000
 0.928484007324882E-001
 0.156801781203800E+000
 0.205672414277577E+000
 0.200338051575049E+000
 0.202104382654942E+000
 0.492898579801510E-001
 0.428584321601738E-001
 0.449529006505912E-001
 0.459456297413999E-001
 0.129280185066204E+000
 0.124283254495690E+000
 0.911768107719844E-001
 0.127788929936014E+000
 0.138584057131788E+000
 0.133327741634987E+000
 0.101862956651372E+000
 0.132758199494676E+000
 0.152807556315808E+000
 0.156671215282266E+000
 0.154304504616962E+000
 0.155322275368364E+000
 0.684137157236104E-001
 0.110124700282764E+000
 0.538312913685022E-001
 0.636453194470021E-001
 0.337831443935344E-001
 0.320493134558736E-001
 0.386098397264360E-001
 0.366886572252101E-001
 0.117177101940711E+000
 0.130044874310953E+000
 0.962663958847913E-001
 0.116513038790813E+000
 0.133666064106126E+000
 0.178983121801135E+000
 0.114759588442901E+000
 0.151006636535512E+000
 0.229421567731335E-001
 0.282262924246035E-001
 0.281537014557450E-001
 0.244323484801128E-001
 0.137360565903977E-003
 0.176845050031511E-003
 0.859572405465115E-004
 0.129649907702099E-003
 0.151777534306164E+000
 0.129278356977087E+000
 0.157004353390691E+000
 0.154612357579183E+000
 0.121136615216561E+000
 0.103603192015593E+000
 0.143233577250294E+000
 0.121769103614229E+000
 0.157093665067687E-001
 0.134075297031377E-001
 0.466441947429979E-002
 0.141574769488182E-001
 0.144596691188807E+000
 0.139860934018606E+000
 0.128639321079280E+000
 0.141196728381229E+000
 0.285798211402265E-001
 0.274317106840278E-001
 0.584207965424137E-001
 0.283643609138932E-001
 0.149171325423685E+000
 0.146862957425933E+000
 0.127636463002349E+000
 0.149883716606092E+000
 0.134966754334163E+000
 0.142674854303215E+000
 0.926459808936796E-001
 0.137694994115134E+000
 0.977625956640135E-001
 0.604439923361652E-001
 0.382369493298140E-001
 0.592416576821988E-001
 0.166665581024098E+000
 0.130416914695769E+000
 0.130352819744337E+000
 0.130735503351133E+000
 0.145536526366405E+000
 0.104247759791766E+000
 0.120332690460749E+000
 0.115421877059769E+000
 0.922569584860132E-001
 0.143906442720107E+000
 0.126691964034020E+000
 0.127835111013584E+000
 0.764672416815817E-001
 0.875954095323672E-001
 0.766146896062093E-001
 0.797582387069680E-001
 0.820964096787503E-001
 0.925213505725302E-001
 0.933240782524528E-001
 0.872425170351817E-001
 0.437872475147486E-002
 0.661993808352525E-002
 0.719760770491759E-001
 0.686080627213995E-002
 0.589416342024614E-001
 0.598093631336423E-001
 0.292923434187374E-001
 0.594253004293361E-001
 0.236737116649995E+000
 0.170080934082253E+000
 0.189679031264579E+000
 0.194363673266647E+000
 0.159731096058765E+000
 0.131760323995247E+000
 0.163464974859870E+000
 0.162136024587503E+000
 0.138479417429333E-004
 0.348033446821621E-004
 0.580603026785352E-004
 0.335627663637305E-004
 0.937612668110551E-001
 0.368419415361365E-001
 0.699655247657219E-001
 0.717420787618363E-001
 0.115262190566876E-002
 0.508134316631535E-002
 0.349752068687051E-002
 0.327290707599070E-002
 0.494926722762155E-002
 0.108117814488343E-002
 0.574357539152048E-002
 0.515446972431326E-002
 0.294058458372625E-001
 0.606582198188449E-001
 0.297668109017606E-001
 0.284272395432158E-001
 0.532396861029248E-004
 0.442485185188472E-004
 0.141547787477950E-004
 0.451332115796761E-004
 0.185800174321221E-002
 0.733175521302873E-002
 0.684924094681530E-002
 0.710165228027205E-002
 0.656729856720738E-001
 0.384720847702367E-001
 0.781148702311683E-001
 0.675306135561261E-001
 0.446508380206118E-002
 0.126831110259886E-001
 0.434316083393253E-002
 0.438508087388045E-002
 0.477115581756558E-003
 0.102611162335514E-003
 0.143460518287630E-003
 0.131190100874983E-003
 0.456658944167588E-003
 0.780035162222958E-003
 0.203640106693417E-002
 0.669776277478760E-003
 0.159306333875587E-002
 0.607119476944823E-002