# vtk DataFile Version 3.0
Unstructured Grid
ASCII
DATASET UNSTRUCTURED_GRID
FIELD FieldData 1
TIME 1 1 float
  0.000000E+00
POINTS         2588 double
 0.000000000000000E+000 0.000000000000000E+000 0.000000000000000E+000
 0.100000000000000E+001 0.000000000000000E+000 0.000000000000000E+000
 0.100000000000000E+001 0.100000000000000E+001 0.000000000000000E+000
 0.000000000000000E+000 0.100000000000000E+001 0.000000000000000E+000
 0.125000000000000E+000 0.250000000000000E+000 0.000000000000000E+000
 0.375000000000000E+000 0.250000000000000E+000 0.000000000000000E+000
 0.375000000000000E+000 0.750000000000000E+000 0.000000000000000E+000
 0.125000000000000E+000 0.750000000000000E+000 0.000000000000000E+000
 0.625000000000000E+000 0.250000000000000E+000 0.000000000000000E+000
 0.875000000000000E+000 0.250000000000000E+000 0.000000000000000E+000
 0.875000000000000E+000 0.750000000000000E+000 0.000000000000000E+000
 0.625000000000000E+000 0.750000000000000E+000 0.000000000000000E+000
 0.100000000000000E+001 0.500000000000000E+000 0.000000000000000E+000
 0.000000000000000E+000 0.500000000000000E+000 0.000000000000000E+000
 0.500000000000000E+000 0.000000000000000E+000 0.000000000000000E+000
 0.125000000000000E+000 0.500000000000000E+000 0.000000000000000E+000
 0.000000000000000E+000 0.750000000000000E+000 0.000000000000000E+000
 0.000000000000000E+000 0.250000000000000E+000 0.000000000000000E+000
 0.000000000000000E+000 0.875000000000000E+000 0.000000000000000E+000
 0.000000000000000E+000 0.125000000000000E+000 0.000000000000000E+000
 0.000000000000000E+000 0.812500000000000E+000 0.000000000000000E+000
 0.625000000000000E-001 0.812500000000000E+000 0.000000000000000E+000
 0.125000000000000E+000 0.375000000000000E+000 0.000000000000000E+000
 0.000000000000000E+000 0.375000000000000E+000 0.000000000000000E+000
 0.125000000000000E+000 0.625000000000000E+000 0.000000000000000E+000
 0.312500000000000E-001 0.781250000000000E+000 0.000000000000000E+000
 0.000000000000000E+000 0.625000000000000E+000 0.000000000000000E+000
 0.781250000000000E-001 0.765625000000000E+000 0.000000000000000E+000
 0.364583333333333E-001 0.744791666666667E+000 0.000000000000000E+000
 0.000000000000000E+000 0.687500000000000E+000 0.000000000000000E+000
 0.312500000000000E-001 0.843750000000000E+000 0.000000000000000E+000
 0.500000000000000E+000 0.100000000000000E+001 0.000000000000000E+000
 0.117915518486872E+000 0.805415518486872E+000 0.000000000000000E+000
 0.531250000000000E-001 0.896875000000000E+000 0.000000000000000E+000
 0.128125000000000E+000 0.862500000000000E+000 0.000000000000000E+000
 0.852352799227800E-001 0.850726351351351E+000 0.000000000000000E+000
 0.250000000000000E+000 0.750000000000000E+000 0.000000000000000E+000
 0.000000000000000E+000 0.937500000000000E+000 0.000000000000000E+000
 0.250000000000000E+000 0.100000000000000E+001 0.000000000000000E+000
 0.125000000000000E+000 0.100000000000000E+001 0.000000000000000E+000
 0.559955578663221E-001 0.864626829113867E+000 0.000000000000000E+000
 0.201656717908302E+000 0.819893736067327E+000 0.000000000000000E+000
 0.181985294117647E-001 0.906250000000000E+000 0.000000000000000E+000
 0.157158578892515E+000 0.827852167423944E+000 0.000000000000000E+000
 0.173219498992632E+000 0.789273026175030E+000 0.000000000000000E+000
 0.190370748034901E+000 0.885171153579592E+000 0.000000000000000E+000
 0.163362285670037E+000 0.862539079232243E+000 0.000000000000000E+000
 0.145689809422689E+000 0.911060496538305E+000 0.000000000000000E+000
 0.260169562085505E+000 0.921822264266383E+000 0.000000000000000E+000
 0.999952720236157E-001 0.900131729869707E+000 0.000000000000000E+000
 0.181336648989602E+000 0.921080529637299E+000 0.000000000000000E+000
 0.187500000000000E+000 0.100000000000000E+001 0.000000000000000E+000
 0.625000000000000E-001 0.100000000000000E+001 0.000000000000000E+000
 0.391044682108720E-001 0.939348618511729E+000 0.000000000000000E+000
 0.987901813178879E-001 0.953497897705852E+000 0.000000000000000E+000
 0.127430470763290E+000 0.938015442955272E+000 0.000000000000000E+000
 0.735147503821561E-001 0.927156548383149E+000 0.000000000000000E+000
 0.187500000000000E+000 0.750000000000000E+000 0.000000000000000E+000
 0.937500000000000E-001 0.986976003387646E+000 0.000000000000000E+000
 0.647068558612996E-001 0.964310770745732E+000 0.000000000000000E+000
 0.287348941263244E-001 0.975594752089430E+000 0.000000000000000E+000
 0.140548246895551E+000 0.780148342865875E+000 0.000000000000000E+000
 0.625000000000000E-001 0.656250000000000E+000 0.000000000000000E+000
 0.885416666666667E-001 0.718750000000000E+000 0.000000000000000E+000
 0.125000000000000E+000 0.687500000000000E+000 0.000000000000000E+000
 0.418778153153153E-001 0.701096693284193E+000 0.000000000000000E+000
 0.130000591648319E-001 0.718750000000000E+000 0.000000000000000E+000
 0.886787280701754E-001 0.682017543859649E+000 0.000000000000000E+000
 0.324539302647226E+000 0.874753539998500E+000 0.000000000000000E+000
 0.220842706957930E+000 0.911928394103011E+000 0.000000000000000E+000
 0.255656705174793E+000 0.856653769033302E+000 0.000000000000000E+000
 0.230240640268531E+000 0.957679342037283E+000 0.000000000000000E+000
 0.247273788001812E+000 0.889974781313083E+000 0.000000000000000E+000
 0.287822583654814E+000 0.892090285129540E+000 0.000000000000000E+000
 0.375000000000000E+000 0.100000000000000E+001 0.000000000000000E+000
 0.312500000000000E+000 0.100000000000000E+001 0.000000000000000E+000
 0.296339471848887E+000 0.927737349884604E+000 0.000000000000000E+000
 0.272754945277513E+000 0.963602684427479E+000 0.000000000000000E+000
 0.218750000000000E+000 0.100000000000000E+001 0.000000000000000E+000
 0.156250000000000E+000 0.970185411869689E+000 0.000000000000000E+000
 0.193067439035452E+000 0.962879965079150E+000 0.000000000000000E+000
 0.366022419631980E+000 0.930828672570042E+000 0.000000000000000E+000
 0.331917636626289E+000 0.912676918057824E+000 0.000000000000000E+000
 0.218750000000000E+000 0.780050991479902E+000 0.000000000000000E+000
 0.270314960374965E+000 0.802399429390985E+000 0.000000000000000E+000
 0.239019213447470E+000 0.823051378525603E+000 0.000000000000000E+000
 0.312500000000000E+000 0.750000000000000E+000 0.000000000000000E+000
 0.297176692881550E+000 0.838764170920897E+000 0.000000000000000E+000
 0.316491084060399E+000 0.796393690767677E+000 0.000000000000000E+000
 0.343750000000000E+000 0.770680188507291E+000 0.000000000000000E+000
 0.409908719410776E+000 0.836702006091634E+000 0.000000000000000E+000
 0.362591033297072E+000 0.817958948082628E+000 0.000000000000000E+000
 0.401086171766563E+000 0.789875587437421E+000 0.000000000000000E+000
 0.371341896832358E+000 0.864966336467817E+000 0.000000000000000E+000
 0.333452116450771E+000 0.839580614538559E+000 0.000000000000000E+000
 0.625000000000000E+000 0.500000000000000E+000 0.000000000000000E+000
 0.497245004128187E+000 0.796002674320860E+000 0.000000000000000E+000
 0.375000000000000E+000 0.625000000000000E+000 0.000000000000000E+000
 0.448383797292392E+000 0.805208595628784E+000 0.000000000000000E+000
 0.410140101146819E+000 0.755482168792868E+000 0.000000000000000E+000
 0.466643384891561E+000 0.767852445997818E+000 0.000000000000000E+000
 0.476967665188550E+000 0.732032311892081E+000 0.000000000000000E+000
 0.540753556856103E+000 0.747012385328872E+000 0.000000000000000E+000
 0.490851671729155E+000 0.896339978179292E+000 0.000000000000000E+000
 0.457989751325779E+000 0.856193010026991E+000 0.000000000000000E+000
 0.477617377726983E+000 0.826097842173926E+000 0.000000000000000E+000
 0.546397010943533E+000 0.849506899903764E+000 0.000000000000000E+000
 0.514994092174850E+000 0.829026377565149E+000 0.000000000000000E+000
 0.557956128164421E+000 0.797467818442289E+000 0.000000000000000E+000
 0.513053884697208E+000 0.866316721845202E+000 0.000000000000000E+000
 0.531719458287368E+000 0.903340824708691E+000 0.000000000000000E+000
 0.750000000000000E+000 0.100000000000000E+001 0.000000000000000E+000
 0.503122841217304E+000 0.947490703764094E+000 0.000000000000000E+000
 0.428509525448068E+000 0.913846660476909E+000 0.000000000000000E+000
 0.625000000000000E+000 0.100000000000000E+001 0.000000000000000E+000
 0.410139362032626E+000 0.877461197108989E+000 0.000000000000000E+000
 0.393550593852374E+000 0.908666538512922E+000 0.000000000000000E+000
 0.455853425536278E+000 0.891464570133054E+000 0.000000000000000E+000
 0.465565809489837E+000 0.931223943045515E+000 0.000000000000000E+000
 0.430803944763131E+000 0.957152995135723E+000 0.000000000000000E+000
 0.361862549463301E+000 0.897277191535820E+000 0.000000000000000E+000
 0.281250000000000E+000 0.768022264880110E+000 0.000000000000000E+000
 0.528016132294562E+000 0.779515446907155E+000 0.000000000000000E+000
 0.582435077211395E+000 0.760961532636893E+000 0.000000000000000E+000
 0.594258447236559E+000 0.718750000000000E+000 0.000000000000000E+000
 0.513210480866922E+000 0.721000388231171E+000 0.000000000000000E+000
 0.625000000000000E+000 0.625000000000000E+000 0.000000000000000E+000
 0.293099715520438E+000 0.681007179427844E+000 0.000000000000000E+000
 0.625000000000000E+000 0.687500000000000E+000 0.000000000000000E+000
 0.375000000000000E+000 0.500000000000000E+000 0.000000000000000E+000
 0.588365877190365E+000 0.682207614843486E+000 0.000000000000000E+000
 0.544806337802789E+000 0.700097114505632E+000 0.000000000000000E+000
 0.473117607324743E+000 0.654334216996401E+000 0.000000000000000E+000
 0.507976816774602E+000 0.678758937084175E+000 0.000000000000000E+000
 0.471770128441152E+000 0.693345422145358E+000 0.000000000000000E+000
 0.540484989053884E+000 0.595274872726202E+000 0.000000000000000E+000
 0.434924684287812E+000 0.717988149163748E+000 0.000000000000000E+000
 0.438762107036035E+000 0.672676424045669E+000 0.000000000000000E+000
 0.514022824851611E+000 0.633041943182225E+000 0.000000000000000E+000
 0.375000000000000E+000 0.687500000000000E+000 0.000000000000000E+000
[...]
CELL_DATA         5036
SCALARS tdens double 1
LOOKUP_TABLE default
 0.104583462263718E+001
 0.105392027448240E+001
 0.105365936555852E+001
 0.105100274003183E+001
 0.141142938813807E+001
 0.140448878753745E+001
 0.143470268389266E+001
 0.141667038807692E+001
 0.135751999623495E+001
 0.138126597371249E+001
 0.135952696128754E+001
 0.136594868388334E+001
 0.132012403109876E+001
 0.132726999828794E+001
 0.130147207961807E+001
 0.131604965498538E+001
 0.129741664651127E+001
 0.131283385775914E+001
 0.129422548821716E+001
 0.130138291986225E+001
 0.102457343074611E+001
 0.102669830122785E+001
 0.101860164103813E+001
 0.102310420735712E+001
 0.231114828826985E+001
 0.229442182596893E+001
 0.226890343811167E+001
 0.229137044101194E+001
 0.187678673902338E+001
 0.186744349247442E+001
 0.191413128457395E+001
 0.188590229601699E+001
 0.177269061338193E+001
 0.174042303129016E+001
 0.177455229235595E+001
 0.176241479267886E+001
 0.176896918577570E+001
 0.174042281791442E+001
 0.176633064699465E+001
 0.175843695288116E+001
 0.136675752016682E+001
 0.137834653780560E+001
 0.134838328660749E+001
 0.136432688673035E+001
 0.132761393192204E+001
 0.131617129736607E+001
 0.130326402779564E+001
 0.131553099534629E+001
 0.267332436632883E+001
 0.270345323700024E+001
 0.273219650634263E+001
 0.270282741911518E+001
 0.163199626584525E+001
 0.160269939084525E+001
 0.163770720989555E+001
 0.162391367069293E+001
 0.201841383486009E+001
 0.205908735876448E+001
 0.202652618830452E+001
 0.203454804611211E+001
 0.230998551829610E+001
 0.226384499575389E+001
 0.227049810371396E+001
 0.228130363466327E+001
 0.247153299534952E+001
 0.243024691224998E+001
 0.246369802623385E+001
 0.245503602714849E+001
 0.175326516470822E+001
 0.172812304690974E+001
 0.175850129445154E+001
 0.174650409211587E+001
 0.121469380525698E+001
 0.121071908717986E+001
 0.119062519949051E+001
 0.120513642900769E+001
 0.180883745355372E+001
 0.184113832791468E+001
 0.185049837577111E+001
 0.183329097230562E+001
 0.119253531866316E+001
 0.118428561762096E+001
 0.117170919880788E+001
 0.118259257739931E+001
 0.163503689236111E+001
 0.158620876736111E+001
 0.161078559027778E+001
 0.161046006944444E+001
 0.147820245131408E+001
 0.145259124961490E+001
 0.146013604506408E+001
 0.146348273450042E+001
 0.165391710069444E+001
 0.165196397569444E+001
 0.162771267361111E+001
 0.164431423611111E+001
 0.125986909195229E+001
 0.124119184325982E+001
 0.126852874609759E+001
 0.125629618390947E+001
 0.173178989595709E+001
 0.174052678038821E+001
 0.176925204551866E+001
 0.174701233635216E+001
 0.167432149147442E+001
 0.167349411137778E+001
 0.170779043038797E+001
 0.168497366980156E+001
 0.146729652837632E+001
 0.146612075756276E+001
 0.144290279311625E+001
 0.145864152150711E+001
 0.149954896234926E+001
 0.150529839657486E+001
 0.147104843923877E+001
 0.149175202192366E+001
 0.127742180205802E+001
 0.126561310290986E+001
 0.128616601387183E+001
 0.127624559982212E+001
 0.106763464459187E+001
 0.107248547765416E+001
 0.107643759359251E+001
 0.107207460274186E+001
 0.182204128174209E+001
 0.177669278813726E+001
 0.178186210511584E+001
 0.179334942065015E+001
 0.143006953747604E+001
 0.147135357439125E+001
 0.146366354077163E+001
 0.145475594595680E+001
 0.173499675904133E+001
 0.168613473968859E+001
 0.170996459545426E+001
 0.171015842824046E+001
 0.121081574429280E+001
 0.118048311140458E+001
 0.118379993955470E+001
 0.119141029467006E+001
 0.156597825038580E+001
 0.159357066213349E+001
 0.156915659963349E+001
 0.157610556520062E+001
 0.110256103040750E+001
 0.111354293327603E+001
 0.110036447605003E+001
 0.110533645467991E+001
 0.171234809027778E+001
 0.173855251736111E+001
 0.168581814236111E+001
 0.171202256944444E+001
 0.152674093364198E+001
 0.150852759090471E+001
 0.155344946590471E+001
 0.152933605806327E+001
 0.157083845727238E+001
 0.158886869454089E+001
 0.159845799575617E+001
 0.158588927469136E+001
 0.164275444878472E+001
 0.161638726128472E+001
 0.160682508680556E+001
 0.162179904513889E+001
 0.170053044361593E+001
 0.167201464075058E+001
 0.170195701376190E+001
 0.169134692083187E+001
 0.145143127441406E+001
 0.141041564941406E+001
 0.143090820312500E+001
 0.143072509765625E+001
 0.166889105902778E+001
 0.167084418402778E+001
 0.169542100694444E+001
 0.167816840277778E+001
 0.153931133511217E+001
 0.149438946011217E+001
 0.151667667429480E+001
 0.151662034044870E+001
 0.186756772394238E+001
 0.182921874630041E+001
 0.185818272833282E+001
 0.185152678808722E+001
 0.221928344262599E+001
 0.217760628122872E+001
 0.221814923785351E+001
 0.220483716049754E+001
 0.177118428303497E+001
 0.180584824407374E+001
 0.179951269927572E+001
 0.179200251473535E+001
 0.164231059151371E+001
 0.160007397805396E+001
 0.162536830126221E+001
 0.162243366775758E+001
 0.176931413316438E+001
 0.176204687761168E+001
 0.179028805883496E+001
 0.177367213234109E+001
 0.165114955069512E+001
 0.161525708705716E+001
 0.165035698378213E+001
 0.163867873366313E+001
 0.185313862758537E+001
 0.187556763141184E+001
 0.183753435479170E+001
 0.185526200273184E+001
 0.173846780167165E+001
 0.172382700793727E+001
 0.168951053876251E+001
 0.171703339145713E+001
 0.175374447170605E+001
 0.172756019425163E+001
 0.174636491146585E+001
 0.174238306984109E+001
 0.168608987071650E+001
 0.172949156047630E+001
 0.171064654400424E+001
 0.170858263551821E+001
 0.175847063746159E+001
 0.174865811698219E+001
 0.179309698849166E+001
 0.176655015024945E+001
 0.180950320527261E+001
 0.178133949476313E+001
 0.180213051038813E+001
 0.179749339571919E+001
 0.163923648351865E+001
 0.162683673060323E+001
 0.161142259625110E+001
 0.162566498224793E+001
 0.180452857138711E+001
 0.177986300713570E+001
 0.178438899466050E+001
 0.178943681451342E+001
 0.168910538264426E+001
 0.172271693234555E+001
 0.173250915756162E+001
 0.171461643958382E+001
 0.190021369284866E+001
 0.188168389747608E+001
 0.186812982827197E+001
 0.188323120574000E+001
 0.179478226269388E+001
 0.175018346565129E+001
 0.176488201955894E+001
 0.176975912917989E+001
 0.150439105763560E+001
 0.152103077740270E+001
 0.147998528635997E+001
 0.150158888688492E+001
 0.189298402723636E+001
 0.186615515211522E+001
 0.184363501251945E+001
 0.186743546192789E+001
 0.184986271524924E+001
 0.179322209024924E+001
 0.182143625648789E+001
 0.182132586099697E+001
 0.160093417039050E+001
 0.159385788402845E+001
 0.163603406711546E+001
 0.161003290032979E+001
 0.173304964293085E+001
 0.176651926254643E+001
 0.176182298993784E+001
 0.175358382689609E+001
 0.161129759855300E+001
 0.162496947355300E+001
 0.164080391490831E+001
 0.162547739847205E+001
 0.157449001736111E+001
 0.155609809027778E+001
 0.158425564236111E+001
 0.157139756944444E+001
 0.177417428293099E+001
 0.174198418477912E+001
 0.173302377852584E+001
 0.174956157509606E+001
 0.185854540018731E+001
 0.180815739148502E+001
 0.184503965797588E+001
 0.183706937712283E+001
 0.172141738772649E+001
 0.175036906512232E+001
 0.172016110266431E+001
 0.173046668023581E+001
 0.183194906961072E+001
 0.179176989298447E+001
 0.181632393961179E+001
 0.181316499638742E+001
 0.186564040990483E+001
 0.185052466101745E+001
 0.183478078297473E+001
 0.185016503905392E+001
 0.192234199317970E+001
 0.191108175678053E+001
 0.194565289573987E+001
 0.192617817221553E+001
 0.194588142910372E+001
 0.190103838874837E+001
 0.191956818412095E+001
 0.192199579424168E+001
 0.196552210673604E+001
 0.199055860076523E+001
 0.194206208521517E+001
 0.196581718156741E+001
 0.178486078502622E+001
 0.183032802667484E+001
 0.181485601295846E+001
 0.180981823317172E+001
 0.187820639365303E+001
 0.188565190766942E+001
 0.186337633150525E+001
 0.187558866266037E+001
 0.187049311756816E+001
 0.183974145281470E+001
 0.187002662232632E+001
 0.185995761760760E+001
 0.191579000758845E+001
 0.189640122186408E+001
 0.193135005255985E+001
 0.191439333896508E+001
 0.199357894645313E+001
 0.197736372776177E+001
 0.194522531688028E+001
 0.197191316997371E+001
 0.195077482751282E+001
 0.190869646310533E+001
 0.195374747136981E+001
 0.193754631255569E+001
 0.189156071031112E+001
 0.189413137807903E+001
 0.192842226474677E+001
 0.190455948461876E+001
 0.184119054207046E+001
 0.187231417519675E+001
 0.186983354258408E+001
 0.186099128376649E+001
 0.182198206266667E+001
 0.186031230465434E+001
 0.182922767209110E+001
 0.183703954343242E+001
 0.193180352921050E+001
 0.196379345352366E+001
 0.193936819283549E+001
 0.194488333643218E+001
 0.198172423856339E+001
 0.202051739938525E+001
 0.197884089801304E+001
 0.199354502706488E+001
 0.191064613775818E+001
 0.194770549829179E+001
 0.197126431225911E+001
 0.194299408097683E+001
 0.184873985662214E+001
 0.188682663086096E+001
 0.189817462538184E+001
 0.187774433655096E+001
 0.182508789107697E+001
 0.184755453305406E+001
 0.181858155099173E+001
 0.183026988888469E+001
 0.191970397671619E+001
 0.188517018846414E+001
 0.191213216902018E+001
 0.190555574138250E+001
 0.164549245889028E+001
 0.164381646543317E+001
 0.161618934208188E+001
 0.163500542212598E+001
 0.164722808678834E+001
 0.168798008264093E+001
 0.166437692170728E+001
 0.166636876233521E+001
 0.200762627021221E+001
 0.200176689521221E+001
 0.199149912234475E+001
 0.200012524525707E+001
 0.195353294435978E+001
 0.197795820504795E+001
 0.198846253530764E+001
 0.197321283948075E+001
 0.196859896560034E+001
 0.199403960506673E+001
 0.199211267908625E+001
 0.198472088161871E+001
 0.187933472941074E+001
 0.191386851766280E+001
 0.188879033280661E+001
 0.189388482327572E+001
 0.190337936348872E+001
 0.192846799010758E+001
 0.193772038419681E+001
 0.192307476782466E+001
 0.198334527377339E+001
 0.195768566274847E+001
 0.194845946767875E+001
 0.196304025695399E+001
 0.159871061805953E+001
 0.161430474797050E+001
 0.158910855298770E+001
 0.160048101994324E+001
 0.168640620867986E+001
 0.164562945301798E+001
 0.165798238662584E+001
 0.166318800133402E+001
 0.157802628882137E+001
 0.154411560812114E+001
 0.157094621069637E+001
 0.156416678722994E+001
 0.135938393791369E+001
 0.134279254910564E+001
 0.138344387525720E+001
 0.136158270964065E+001
 0.149450452067780E+001
 0.148446027028699E+001
 0.151018037352584E+001
 0.149620414411470E+001
 0.146948325343823E+001
 0.147953189165081E+001
 0.145027230613080E+001
 0.146625303563169E+001
 0.152380930290040E+001
 0.153965650441655E+001
 0.150835488903466E+001
 0.152372304829057E+001
 0.155613501277971E+001
 0.154032238618827E+001
 0.157434609495563E+001
 0.155671597704475E+001
 0.153063622579652E+001
 0.155025529778288E+001
 0.155349028729605E+001
 0.154469031585088E+001
 0.147898611439102E+001
 0.146873785970131E+001
 0.144798203668414E+001
 0.146507378771667E+001
 0.148307313962779E+001
 0.149339017700260E+001
 0.150519638476740E+001
 0.149376907408925E+001
 0.153865565361022E+001
 0.151908510534706E+001
 0.150728580549821E+001
 0.152155572580317E+001
 0.149131940739462E+001
 0.150939937701267E+001
 0.148376441257099E+001
 0.149468872241472E+001
 0.145416697958117E+001
 0.143507373369261E+001
 0.141840297868178E+001
 0.143572165260668E+001
 0.183637988285941E+001
 0.187128689723498E+001
 0.186357949558683E+001
 0.185692423313135E+001
 0.193645751593483E+001
 0.195199722871360E+001
 0.197915636031417E+001
 0.195572898504018E+001
 0.197370909820168E+001
 0.202982560336660E+001
 0.201172291055405E+001
 0.200488067876143E+001
 0.167882278714575E+001
 0.170918590457953E+001
 0.171807514853939E+001
 0.170183838567449E+001
 0.184806880064049E+001
 0.182102362143519E+001
 0.186071005447528E+001
 0.184312528013486E+001
 0.202515992332192E+001
 0.198969981920267E+001
 0.203145519644190E+001
 0.201531545335549E+001
 0.201138232219213E+001
 0.197664109514450E+001
 0.197604867700835E+001
 0.198789394092318E+001
 0.180263530431924E+001
 0.185293774706624E+001
 0.182276368783871E+001
 0.182593688857540E+001
 0.181066537899765E+001
 0.180692362553702E+001
 0.185031688623018E+001
 0.182243347716253E+001
 0.199613147001911E+001
 0.196892560968781E+001
 0.200414291196208E+001
 0.198961221149750E+001
 0.189991389392688E+001
 0.186779136876341E+001
 0.188048609845038E+001
 0.188260606694882E+001
 0.193282945683119E+001
 0.193559746722007E+001
 0.190060112559422E+001
 0.192286479276578E+001
 0.207260330905047E+001
 0.208383186222070E+001
 0.211540116635552E+001
 0.209046069676471E+001
 0.207520047426990E+001
 0.205771083942326E+001
 0.202800702089821E+001
 0.205339907719514E+001
 0.191982194630234E+001
 0.188756816260077E+001
 0.188356742510466E+001
 0.189683280339834E+001
 0.203668268241960E+001
 0.199051291971771E+001
 0.200692362241352E+001
 0.201121011444421E+001
 0.189706802303041E+001
 0.193937935940882E+001
 0.190458553968025E+001
 0.191345267490311E+001
 0.198274087670640E+001
 0.196633529428255E+001
 0.193997218067897E+001
 0.196285145005926E+001
 0.201962751151671E+001
 0.200986188651671E+001
 0.198505634928864E+001
 0.200463643815372E+001
 0.199801572304564E+001
 0.204426436161454E+001
 0.203696167598815E+001
 0.202627277838857E+001
 0.195084998109420E+001
 0.190860958507464E+001
 0.195031583348994E+001
 0.193641584635779E+001
 0.189392821578205E+001
 0.193592217260164E+001
 0.189449548868123E+001
 0.190792371395129E+001
 0.173004866119289E+001
 0.177415836647318E+001
 0.174119741195622E+001
 0.174828523643015E+001
 0.200650987162760E+001
 0.202575430082992E+001
 0.206704569981903E+001
 0.203291250153182E+001
 0.191639678280803E+001
 0.188353507334931E+001
 0.189136997396826E+001
 0.189695281945329E+001
 0.202671745966151E+001
 0.197077602675066E+001
 0.199951531151276E+001
 0.199881860215048E+001
 0.166055906468095E+001
 0.164489350877656E+001
 0.169074445538576E+001
 0.166517133127498E+001
 0.166302228548650E+001
 0.166469827894361E+001
 0.169301262229521E+001
 0.167341706223264E+001
 0.179942294778182E+001
 0.175847860407780E+001
 0.179160807917936E+001
 0.178300155408014E+001
 0.186227210133356E+001
 0.181882536478822E+001
 0.185827233600246E+001
 0.184627260623305E+001
 0.177508081342994E+001
 0.175248256591319E+001
 0.178482417162501E+001
 0.177066992746547E+001
 0.167829423109823E+001
 0.171744002805632E+001
 0.170664542264726E+001
 0.170063918766539E+001
 0.169307163020384E+001
 0.164711411915909E+001
 0.166924875285855E+001
 0.166965146943832E+001
 0.144063110818968E+001
 0.144749776073146E+001
 0.143046548491854E+001
 0.143940734391629E+001
 0.178363492985130E+001
 0.174248442544615E+001
 0.178003944590070E+001
 0.176851831451007E+001
 0.171139585166791E+001
 0.168742834083915E+001
 0.172008097350854E+001
 0.170614848479300E+001
 0.168075513383300E+001
 0.170679668911168E+001
 0.171788176732514E+001
 0.170167295318193E+001
 0.172209912929182E+001
 0.171772106732151E+001
 0.175835770879114E+001
 0.173252233837203E+001
 0.167534794247951E+001
 0.169683231747951E+001
 0.170153432665027E+001
 0.169105167566439E+001
 0.178252535133365E+001
 0.173820136421603E+001
 0.177455877979417E+001
 0.176485858965888E+001
 0.184234421842010E+001
 0.180856106488467E+001
 0.180070993910369E+001
 0.181700698059992E+001
 0.189126424534540E+001
 0.188228116418596E+001
 0.191736176153341E+001
 0.189681325141403E+001
 0.186823178330735E+001
 0.182544021582354E+001
 0.185922336935897E+001
 0.185076615588569E+001
 0.180858382438584E+001
 0.182076773943045E+001
 0.184792392113085E+001
 0.182562857573320E+001
 0.174028441125998E+001
 0.176310328087065E+001
 0.172227900046466E+001
 0.174175555551517E+001
 0.182327059172672E+001
 0.176791551142053E+001
 0.180229198714531E+001
 0.179757575684454E+001
 0.198136764818444E+001
 0.194906371413208E+001
 0.195148446640927E+001
 0.196046426200761E+001
 0.197615234066928E+001
 0.198608031819305E+001
 0.195390812769276E+001
 0.197194898950883E+001
 0.175707719262255E+001
 0.179798637279760E+001
 0.178586177924249E+001
 0.178015184646436E+001
 0.185962182781385E+001
 0.182471481343828E+001
 0.181691921790231E+001
 0.183359409428909E+001
 0.162203660223950E+001
 0.157777862981627E+001
 0.160124806667446E+001
 0.160006648274226E+001
 0.193294140800993E+001
 0.191552544466960E+001
 0.189125210050622E+001
 0.191307923053463E+001
 0.178639088887774E+001
 0.179642088587514E+001
 0.184774484533325E+001
 0.180990945506930E+001
 0.198401208268877E+001
 0.194869001027078E+001
 0.193257924141185E+001
 0.195489103324937E+001
 0.154159413135719E+001
 0.154618906298458E+001
 0.152333334190208E+001
 0.153690773127763E+001
 0.185173843174840E+001
 0.181248170497173E+001
 0.179040989133997E+001
 0.181792798417032E+001
 0.181948249382753E+001
 0.178738735290389E+001
 0.176436274985591E+001
 0.179019774482843E+001
 0.187469041278948E+001
 0.190538068572552E+001
 0.192139649808433E+001
 0.190034270968431E+001
 0.154206746906085E+001
 0.156759162460425E+001
 0.154039850743239E+001
 0.154985126935626E+001
 0.165683166834622E+001
 0.165510038441673E+001
 0.168493073706916E+001
 0.166549413196357E+001
 0.174395558254706E+001
 0.172679246931570E+001
 0.177802548740821E+001
 0.174934511736898E+001
 0.186286081497830E+001
 0.184712884522451E+001
 0.182616304223288E+001
 0.184521951316107E+001
 0.157280281347129E+001
 0.161985726603182E+001
 0.159095851941508E+001
 0.159424457724660E+001
 0.163340030218114E+001
 0.165087932939963E+001
 0.167805446880523E+001
 0.165384426680752E+001
 0.157244798081757E+001
 0.154176964177823E+001
 0.154388985172579E+001
 0.155255496663423E+001
 0.196236518304352E+001
 0.195962866573630E+001
 0.199621919148269E+001
 0.197254076471297E+001
 0.189337568042218E+001
 0.189606066266897E+001
 0.192907422819862E+001
 0.190602449065541E+001
 0.191000632908948E+001
 0.193614793411026E+001
 0.195728838639786E+001
 0.193433329266330E+001
 0.189506207827694E+001
 0.186439009853622E+001
 0.188012206829001E+001
 0.187971769025069E+001
 0.201999006549858E+001
 0.199918567129422E+001
 0.196922024680696E+001
 0.199598785624034E+001
 0.193322569457086E+001
 0.191226142459759E+001
 0.189741984825018E+001
 0.191418837377701E+001
 0.193422860493213E+001
 0.195532567510397E+001
 0.198581601674235E+001
 0.195829917577081E+001
 0.204729619761540E+001
 0.209117849437131E+001
 0.208656547829273E+001
 0.207482678946974E+001
 0.204293593678037E+001
 0.197929643338039E+001
 0.201428309757306E+001
 0.201192734846183E+001
 0.193998084842512E+001
 0.190708695656947E+001
 0.193748085602415E+001
 0.192799729600708E+001
 0.200425629045658E+001
 0.197364270130764E+001
 0.200749670974681E+001
 0.199501539318519E+001
 0.187730438256790E+001
 0.191130577529565E+001
 0.192571840722794E+001
 0.190458992350578E+001
 0.195348439722068E+001
 0.193899595267668E+001
 0.198827208540857E+001
 0.196005531889507E+001
 0.250888760161272E+001
 0.247423686092063E+001
 0.245077060072707E+001
 0.247775824181380E+001
 0.197087624295626E+001
 0.200643828971966E+001
 0.202179107949315E+001
 0.199950129940716E+001
 0.209763941115401E+001
 0.213329608363428E+001
 0.208525339904029E+001
 0.210523959900212E+001
 0.201642623260346E+001
 0.197980815285542E+001
 0.204347172053797E+001
 0.201298287312198E+001
 0.215677003825003E+001
 0.209979241159622E+001
 0.211209582956677E+001
 0.212266930687128E+001
 0.203167234608325E+001
 0.207091455562318E+001
 0.202854718289807E+001
 0.204353838808973E+001
 0.214438733338899E+001
 0.211857442913166E+001
 0.215361538339865E+001
 0.213862033259871E+001
 0.209779681972149E+001
 0.212377000343023E+001
 0.207060206582898E+001
 0.209718815342448E+001
 0.204792664114984E+001
 0.203261075666472E+001
 0.207509432390496E+001
 0.205174299863311E+001
 0.212689798805128E+001
 0.215890731106326E+001
 0.217172919477241E+001
 0.215236266678705E+001
 0.206333799810763E+001
 0.202267956817803E+001
 0.204358912157628E+001
 0.204306945009813E+001
 0.192893880619647E+001
 0.192669034918877E+001
 0.189166602000798E+001
 0.191556797387413E+001
 0.197952903310548E+001
 0.195829241637453E+001
 0.199858425814656E+001
 0.197868636682074E+001
 0.210008469257517E+001
 0.214100115633243E+001
 0.210898686250197E+001
 0.211654372956741E+001
 0.197981849900782E+001
 0.195118628454630E+001
 0.194766661366201E+001
 0.195945242467768E+001
 0.208802245584933E+001
 0.206814705169396E+001