# vtk DataFile Version 3.0
Unstructured Grid
ASCII
DATASET UNSTRUCTURED_GRID
FIELD FieldData 1
TIME 1 1 float
  0.252182E+03
POINTS         2588 double
 0.000000000000000E+000 0.000000000000000E+000 0.000000000000000E+000
 0.100000000000000E+001 0.000000000000000E+000 0.000000000000000E+000
 0.100000000000000E+001 0.100000000000000E+001 0.000000000000000E+000
 0.000000000000000E+000 0.100000000000000E+001 0.000000000000000E+000
 0.125000000000000E+000 0.250000000000000E+000 0.000000000000000E+000
 0.375000000000000E+000 0.250000000000000E+000 0.000000000000000E+000
 0.375000000000000E+000 0.750000000000000E+000 0.000000000000000E+000
 0.125000000000000E+000 0.750000000000000E+000 0.000000000000000E+000
 0.625000000000000E+000 0.250000000000000E+000 0.000000000000000E+000
 0.875000000000000E+000 0.250000000000000E+000 0.000000000000000E+000
 0.875000000000000E+000 0.750000000000000E+000 0.000000000000000E+000
 0.625000000000000E+000 0.750000000000000E+000 0.000000000000000E+000
 0.100000000000000E+001 0.500000000000000E+000 0.000000000000000E+000
 0.000000000000000E+000 0.500000000000000E+000 0.000000000000000E+000
 0.500000000000000E+000 0.000000000000000E+000 0.000000000000000E+000
 0.125000000000000E+000 0.500000000000000E+000 0.000000000000000E+000
 0.000000000000000E+000 0.750000000000000E+000 0.000000000000000E+000
 0.000000000000000E+000 0.250000000000000E+000 0.000000000000000E+000
 0.000000000000000E+000 0.875000000000000E+000 0.000000000000000E+000
 0.000000000000000E+000 0.125000000000000E+000 0.000000000000000E+000
 0.000000000000000E+000 0.812500000000000E+000 0.000000000000000E+000
 0.625000000000000E-001 0.812500000000000E+000 0.000000000000000E+000
 0.125000000000000E+000 0.375000000000000E+000 0.000000000000000E+000
 0.000000000000000E+000 0.375000000000000E+000 0.000000000000000E+000
 0.125000000000000E+000 0.625000000000000E+000 0.000000000000000E+000
 0.312500000000000E-001 0.781250000000000E+000 0.000000000000000E+000
 0.000000000000000E+000 0.625000000000000E+000 0.000000000000000E+000
 0.781250000000000E-001 0.765625000000000E+000 0.000000000000000E+000
 0.364583333333333E-001 0.744791666666667E+000 0.000000000000000E+000
 0.000000000000000E+000 0.687500000000000E+000 0.000000000000000E+000
 0.312500000000000E-001 0.843750000000000E+000 0.000000000000000E+000
 0.500000000000000E+000 0.100000000000000E+001 0.000000000000000E+000
 0.117915518486872E+000 0.805415518486872E+000 0.000000000000000E+000
 0.531250000000000E-001 0.896875000000000E+000 0.000000000000000E+000
 0.128125000000000E+000 0.862500000000000E+000 0.000000000000000E+000
 0.852352799227800E-001 0.850726351351351E+000 0.000000000000000E+000
 0.250000000000000E+000 0.750000000000000E+000 0.000000000000000E+000
 0.000000000000000E+000 0.937500000000000E+000 0.000000000000000E+000
 0.250000000000000E+000 0.100000000000000E+001 0.000000000000000E+000
 0.125000000000000E+000 0.100000000000000E+001 0.000000000000000E+000
 0.559955578663221E-001 0.864626829113867E+000 0.000000000000000E+000
 0.201656717908302E+000 0.819893736067327E+000 0.000000000000000E+000
 0.181985294117647E-001 0.906250000000000E+000 0.000000000000000E+000
 0.157158578892515E+000 0.827852167423944E+000 0.000000000000000E+000
 0.173219498992632E+000 0.789273026175030E+000 0.000000000000000E+000
 0.190370748034901E+000 0.885171153579592E+000 0.000000000000000E+000
 0.163362285670037E+000 0.862539079232243E+000 0.000000000000000E+000
 0.145689809422689E+000 0.911060496538305E+000 0.000000000000000E+000
 0.260169562085505E+000 0.921822264266383E+000 0.000000000000000E+000
 0.999952720236157E-001 0.900131729869707E+000 0.000000000000000E+000
 0.181336648989602E+000 0.921080529637299E+000 0.000000000000000E+000
 0.187500000000000E+000 0.100000000000000E+001 0.000000000000000E+000
 0.625000000000000E-001 0.100000000000000E+001 0.000000000000000E+000
 0.391044682108720E-001 0.939348618511729E+000 0.000000000000000E+000
 0.987901813178879E-001 0.953497897705852E+000 0.000000000000000E+000
 0.127430470763290E+000 0.938015442955272E+000 0.000000000000000E+000
 0.735147503821561E-001 0.927156548383149E+000 0.000000000000000E+000
 0.187500000000000E+000 0.750000000000000E+000 0.000000000000000E+000
 0.937500000000000E-001 0.986976003387646E+000 0.000000000000000E+000
 0.647068558612996E-001 0.964310770745732E+000 0.000000000000000E+000
 0.287348941263244E-001 0.975594752089430E+000 0.000000000000000E+000
 0.140548246895551E+000 0.780148342865875E+000 0.000000000000000E+000
 0.625000000000000E-001 0.656250000000000E+000 0.000000000000000E+000
 0.885416666666667E-001 0.718750000000000E+000 0.000000000000000E+000
 0.125000000000000E+000 0.687500000000000E+000 0.000000000000000E+000
 0.418778153153153E-001 0.701096693284193E+000 0.000000000000000E+000
 0.130000591648319E-001 0.718750000000000E+000 0.000000000000000E+000
 0.886787280701754E-001 0.682017543859649E+000 0.000000000000000E+000
 0.324539302647226E+000 0.874753539998500E+000 0.000000000000000E+000
 0.220842706957930E+000 0.911928394103011E+000 0.000000000000000E+000
 0.255656705174793E+000 0.856653769033302E+000 0.000000000000000E+000
 0.230240640268531E+000 0.957679342037283E+000 0.000000000000000E+000
 0.247273788001812E+000 0.889974781313083E+000 0.000000000000000E+000
 0.287822583654814E+000 0.892090285129540E+000 0.000000000000000E+000
 0.375000000000000E+000 0.100000000000000E+001 0.000000000000000E+000
 0.312500000000000E+000 0.100000000000000E+001 0.000000000000000E+000
 0.296339471848887E+000 0.927737349884604E+000 0.000000000000000E+000
 0.272754945277513E+000 0.963602684427479E+000 0.000000000000000E+000
 0.218750000000000E+000 0.100000000000000E+001 0.000000000000000E+000
 0.156250000000000E+000 0.970185411869689E+000 0.000000000000000E+000
 0.193067439035452E+000 0.962879965079150E+000 0.000000000000000E+000
 0.366022419631980E+000 0.930828672570042E+000 0.000000000000000E+000
 0.331917636626289E+000 0.912676918057824E+000 0.000000000000000E+000
 0.218750000000000E+000 0.780050991479902E+000 0.000000000000000E+000
 0.270314960374965E+000 0.802399429390985E+000 0.000000000000000E+000
 0.239019213447470E+000 0.823051378525603E+000 0.000000000000000E+000
 0.312500000000000E+000 0.750000000000000E+000 0.000000000000000E+000
 0.297176692881550E+000 0.838764170920897E+000 0.000000000000000E+000
 0.316491084060399E+000 0.796393690767677E+000 0.000000000000000E+000
 0.343750000000000E+000 0.770680188507291E+000 0.000000000000000E+000
 0.409908719410776E+000 0.836702006091634E+000 0.000000000000000E+000
 0.362591033297072E+000 0.817958948082628E+000 0.000000000000000E+000
 0.401086171766563E+000 0.789875587437421E+000 0.000000000000000E+000
 0.371341896832358E+000 0.864966336467817E+000 0.000000000000000E+000
 0.333452116450771E+000 0.839580614538559E+000 0.000000000000000E+000
 0.625000000000000E+000 0.500000000000000E+000 0.000000000000000E+000
 0.497245004128187E+000 0.796002674320860E+000 0.000000000000000E+000
 0.375000000000000E+000 0.625000000000000E+000 0.000000000000000E+000
 0.448383797292392E+000 0.805208595628784E+000 0.000000000000000E+000
 0.410140101146819E+000 0.755482168792868E+000 0.000000000000000E+000
 0.466643384891561E+000 0.767852445997818E+000 0.000000000000000E+000
 0.476967665188550E+000 0.732032311892081E+000 0.000000000000000E+000
 0.540753556856103E+000 0.747012385328872E+000 0.000000000000000E+000
 0.490851671729155E+000 0.896339978179292E+000 0.000000000000000E+000
 0.457989751325779E+000 0.856193010026991E+000 0.000000000000000E+000
 0.477617377726983E+000 0.826097842173926E+000 0.000000000000000E+000
 0.546397010943533E+000 0.849506899903764E+000 0.000000000000000E+000
 0.514994092174850E+000 0.829026377565149E+000 0.000000000000000E+000
 0.557956128164421E+000 0.797467818442289E+000 0.000000000000000E+000
 0.513053884697208E+000 0.866316721845202E+000 0.000000000000000E+000
 0.531719458287368E+000 0.903340824708691E+000 0.000000000000000E+000
 0.750000000000000E+000 0.100000000000000E+001 0.000000000000000E+000
 0.503122841217304E+000 0.947490703764094E+000 0.000000000000000E+000
 0.428509525448068E+000 0.913846660476909E+000 0.000000000000000E+000
 0.625000000000000E+000 0.100000000000000E+001 0.000000000000000E+000
 0.410139362032626E+000 0.877461197108989E+000 0.000000000000000E+000
 0.393550593852374E+000 0.908666538512922E+000 0.000000000000000E+000
 0.455853425536278E+000 0.891464570133054E+000 0.000000000000000E+000
 0.465565809489837E+000 0.931223943045515E+000 0.000000000000000E+000
 0.430803944763131E+000 0.957152995135723E+000 0.000000000000000E+000
 0.361862549463301E+000 0.897277191535820E+000 0.000000000000000E+000
 0.281250000000000E+000 0.768022264880110E+000 0.000000000000000E+000
 0.528016132294562E+000 0.779515446907155E+000 0.000000000000000E+000
 0.582435077211395E+000 0.760961532636893E+000 0.000000000000000E+000
 0.594258447236559E+000 0.718750000000000E+000 0.000000000000000E+000
 0.513210480866922E+000 0.721000388231171E+000 0.000000000000000E+000
 0.625000000000000E+000 0.625000000000000E+000 0.000000000000000E+000
 0.293099715520438E+000 0.681007179427844E+000 0.000000000000000E+000
 0.625000000000000E+000 0.687500000000000E+000 0.000000000000000E+000
 0.375000000000000E+000 0.500000000000000E+000 0.000000000000000E+000
 0.588365877190365E+000 0.682207614843486E+000 0.000000000000000E+000
 0.544806337802789E+000 0.700097114505632E+000 0.000000000000000E+000
 0.473117607324743E+000 0.654334216996401E+000 0.000000000000000E+000
 0.507976816774602E+000 0.678758937084175E+000 0.000000000000000E+000
 0.471770128441152E+000 0.693345422145358E+000 0.000000000000000E+000
 0.540484989053884E+000 0.595274872726202E+000 0.000000000000000E+000
 0.434924684287812E+000 0.717988149163748E+000 0.000000000000000E+000
 0.438762107036035E+000 0.672676424045669E+000 0.000000000000000E+000
 0.514022824851611E+000 0.633041943182225E+000 0.000000000000000E+000
 0.375000000000000E+000 0.687500000000000E+000 0.000000000000000E+000
[...]
CELL_DATA         5036
SCALARS tdens double 1
LOOKUP_TABLE default
 0.100000000000000E-011
 0.100000000000000E-011
 0.100000000000000E-011
 0.100000000000000E-011
 0.410060619758030E-006
 0.708577202716507E-007
 0.921371023439270E-007
 0.824266206158337E-007
 0.559224975181663E-001
 0.887466175411754E-001
 0.974257856107689E-001
 0.938280915955958E-001
 0.100000000000000E-011
 0.100000000000000E-011
 0.100000000000000E-011
 0.100000000000000E-011
 0.100000000000000E-011
 0.100000000000000E-011
 0.100000000000000E-011
 0.100000000000000E-011
 0.100000000000000E-011
 0.100000000000000E-011
 0.100000000000000E-011
 0.100000000000000E-011
 0.792338537762186E-002
 0.581295152390961E-002
 0.501401459853559E-001
 0.700137924479220E-002
 0.117310585832825E+000
 0.147310223162357E+000
 0.107719864733514E+000
 0.116236848256386E+000
 0.155250897175733E+000
 0.192469239120060E+000
 0.197360178545607E+000
 0.195389766961487E+000
 0.480291760881859E-010
 0.360911686739879E-010
 0.220888835913299E-010
 0.391021333454049E-010
 0.473320865740965E-008
 0.155459642143839E-007
 0.141234763773178E-007
 0.151663824130696E-007
 0.192366271575233E-005
 0.583480728469211E-005
 0.395214360014789E-005
 0.380218634123695E-005
 0.454015951282412E-008
 0.108149991276299E-008
 0.107906767446987E-009
 0.943041019321885E-009
 0.128969158013554E+000
 0.761131959397122E-001
 0.995900276197214E-001
 0.861960531830107E-001
 0.367075160722901E-002
 0.552764935112376E-003
 0.106014002149127E-002
 0.932363616718626E-003
 0.133037695930960E+000
 0.144806742952991E+000
 0.202002264898174E+000
 0.142233092293865E+000
 0.220220277026096E-009
 0.787398020276087E-009
 0.184773495037628E-009
 0.216292878687729E-009
 0.734469176549311E-007
 0.758163234172303E-002
 0.335068889294088E-003
 0.396074705911627E-003
 0.100000000000000E-011
 0.100000000000000E-011
 0.100000000000000E-011
 0.100000000000000E-011
 0.143404979745379E+000
 0.146988833382012E+000
 0.122553303063070E+000
 0.145761287635413E+000
 0.173504200516082E-004
 0.823494759649338E-004
 0.778182747926586E-005
 0.159564009719182E-004
 0.100000000000000E-011
 0.100000000000000E-011
 0.100000000000000E-011
 0.100000000000000E-011
 0.149014394680376E+000
 0.147065242056374E+000
 0.136607505523346E+000
 0.147202290654918E+000
 0.100000000000000E-011
 0.100000000000000E-011
 0.100000000000000E-011
 0.100000000000000E-011
 0.142781470312958E+000
 0.156343471812713E+000
 0.157612637735676E+000
 0.157425133202816E+000
 0.108583892482934E+000
 0.119187094742745E+000
 0.789875599425119E-001
 0.111648106402041E+000
 0.100000000000000E-011
 0.100000000000000E-011
 0.100000000000000E-011
 0.100000000000000E-011
 0.408224666201611E-003
 0.356480165023926E-004
 0.311477055650775E-003
 0.337401529229866E-003
 0.221358029622107E-001
 0.454986749888407E-002
 0.242327289939753E-001
 0.222940831044366E-001
 0.206052463911442E-007
 0.410418676229532E-008
 0.618820612720672E-008
 0.579926522802775E-008
 0.483727239605461E-010
 0.237003451383133E-010
 0.107311983147083E-009
 0.464770738986738E-010
 0.252109976212823E-008
 0.876678227286371E-008
 0.121478563617519E-006
 0.602894754700447E-008
 0.100000000000000E-011
 0.100000000000000E-011
 0.100000000000000E-011
 0.100000000000000E-011
 0.820879180971759E-007
 0.485727422129877E-002
 0.687279304968255E-002
 0.720815351939988E-002
 0.100000000000000E-011
 0.100000000000000E-011
 0.100000000000000E-011
 0.100000000000000E-011
 0.100000000000000E-011
 0.100000000000000E-011
 0.100000000000000E-011
 0.100000000000000E-011
 0.100000000000000E-011
 0.100000000000000E-011
 0.100000000000000E-011
 0.100000000000000E-011
 0.100000000000000E-011
 0.100000000000000E-011
 0.100000000000000E-011
 0.100000000000000E-011
 0.100000000000000E-011
 0.100000000000000E-011
 0.100000000000000E-011
 0.100000000000000E-011
 0.100000000000000E-011
 0.100000000000000E-011
 0.100000000000000E-011
 0.100000000000000E-011
 0.100000000000000E-011
 0.100000000000000E-011
 0.100000000000000E-011
 0.100000000000000E-011
 0.328952023472703E-001
 0.503017113076208E-001
 0.592065841531705E-001
 0.526391082805333E-001
 0.100000000000000E-011
 0.100000000000000E-011
 0.100000000000000E-011
 0.100000000000000E-011
 0.100000000000000E-011
 0.100000000000000E-011
 0.100000000000000E-011
 0.100000000000000E-011
 0.100000000000000E-011
 0.100000000000000E-011
 0.100000000000000E-011
 0.100000000000000E-011
 0.100000000000000E-011
 0.100000000000000E-011
 0.100000000000000E-011
 0.100000000000000E-011
 0.473805970836676E-005
 0.120297300506064E-004
 0.135328752293713E-004
 0.140001175256793E-004
 0.100000000000000E-011
 0.100000000000000E-011
 0.100000000000000E-011
 0.100000000000000E-011
 0.100000000000000E-011
 0.256844952086007E-002
 0.103509971730639E-001
 0.528880413823637E-002
 0.100000000000000E-011
 0.100000000000000E-011
 0.100000000000000E-011
 0.100000000000000E-011
 0.100000000000000E-011
 0.100000000000000E-011
 0.100000000000000E-011
 0.100000000000000E-011
 0.387621044969716E-010
 0.218206712118288E-011
 0.133184458546278E-011
 0.196274256079646E-011
 0.436574628577692E-010
 0.100000000000000E-011
 0.320064244344980E-010
 0.332029789274814E-010
 0.100000000000000E-011
 0.100000000000000E-011
 0.100000000000000E-011
 0.100000000000000E-011
 0.100000000000000E-011
 0.100000000000000E-011
 0.100000000000000E-011
 0.100000000000000E-011
 0.100000000000000E-011
 0.100000000000000E-011
 0.100000000000000E-011
 0.100000000000000E-011
 0.100000000000000E-011
 0.100000000000000E-011
 0.100000000000000E-011
 0.100000000000000E-011
 0.516034314487768E-001
 0.338242655976753E-001
 0.639988682966706E-001
 0.399139603597040E-001
 0.423187444966067E-004
 0.142670397975996E-003
 0.114697198005340E-002
 0.162338357349151E-003
 0.100000000000000E-011
 0.100000000000000E-011
 0.100000000000000E-011
 0.100000000000000E-011
 0.803193325973261E-005
 0.611852303986352E-005
 0.496276928490792E-004
 0.624604085662589E-005
 0.101894160384148E-011
 0.100000000000000E-011
 0.314684056870641E-010
 0.120739354178936E-011
 0.594535792206035E-002
 0.219684443429923E-001
 0.746745541891615E-003
 0.703211362752909E-002
 0.100000000000000E-011
 0.100000000000000E-011
 0.100000000000000E-011
 0.100000000000000E-011
 0.100000000000000E-011
 0.100000000000000E-011
 0.100000000000000E-011
 0.100000000000000E-011
 0.100000000000000E-011
 0.100000000000000E-011
 0.100000000000000E-011
 0.100000000000000E-011
 0.329590117005637E-001
 0.699959095366425E-002
 0.205123333163985E-002
 0.621548081053339E-002
 0.881893510719110E-001
 0.116652285219251E+000
 0.108958596724505E+000
 0.100281438113275E+000
 0.148038239790761E-001
 0.295418215775638E-001
 0.490978514327425E-001
 0.384605555921995E-001
 0.335796919279789E-001
 0.678785562203588E-001
 0.926524763251034E-001
 0.671653321940912E-001
 0.917916276242318E-005
 0.720864971056386E-003
 0.146045888127518E-003
 0.182626361880496E-003
 0.291232193580492E-001
 0.185100028724713E-002
 0.144653646030048E-001
 0.170019903383877E-001
 0.207903318854689E-008
 0.702369464880794E-007
 0.754428976304284E-007
 0.662748510343366E-007
 0.790205178728569E-008
 0.243119488590425E-008
 0.767819439229882E-007
 0.786397460198549E-008
 0.100000000000000E-011
 0.100000000000000E-011
 0.100000000000000E-011
 0.100000000000000E-011
 0.107449258228467E-007
 0.394412191256935E-006
 0.617735365896519E-006
 0.329293615305213E-006
 0.100000000000000E-011
 0.100000000000000E-011
 0.100000000000000E-011
 0.100000000000000E-011
 0.341105562600254E-010
 0.392914606283682E-010
 0.141125146406596E-011
 0.328785341074391E-010
 0.463018519561639E-009
 0.501398756235252E-011
 0.195742546627721E-009
 0.201259542608717E-009
 0.102184855132321E-007
 0.828701043099961E-007
 0.662422662401179E-007
 0.848429818407930E-007
 0.114078595965757E-004
 0.280878632205861E-004
 0.125088065577238E-004
 0.133384239859268E-004
 0.100000000000000E-011
 0.100000000000000E-011
 0.100000000000000E-011
 0.100000000000000E-011
 0.106149257993931E-008
 0.573844496413820E-007
 0.437430423910419E-008
 0.452038084554320E-008
 0.100000000000000E-011
 0.100000000000000E-011
 0.100000000000000E-011
 0.100000000000000E-011
 0.100000000000000E-011
 0.100000000000000E-011
 0.100000000000000E-011
 0.100000000000000E-011
 0.100000000000000E-011
 0.100000000000000E-011
 0.100000000000000E-011
 0.100000000000000E-011
 0.100000000000000E-011
 0.100000000000000E-011
 0.100000000000000E-011
 0.100000000000000E-011
 0.669946585439153E-009
 0.302723482485885E-010
 0.117123294532933E-009
 0.103999246253121E-009
 0.100000000000000E-011
 0.100000000000000E-011
 0.100000000000000E-011
 0.100000000000000E-011
 0.100000000000000E-011
 0.100000000000000E-011
 0.100000000000000E-011
 0.100000000000000E-011
 0.100000000000000E-011
 0.100000000000000E-011
 0.100000000000000E-011
 0.100000000000000E-011
 0.100000000000000E-011
 0.100000000000000E-011
 0.100000000000000E-011
 0.100000000000000E-011
 0.870560625936602E-001
 0.595123908263063E-001
 0.698010380450717E-001
 0.789817150405119E-001
 0.154828948999581E-001
 0.231663625639833E-001
 0.775668996947553E-002
 0.160131332457106E-001
 0.100000000000000E-011
 0.100000000000000E-011
 0.100000000000000E-011
 0.100000000000000E-011
 0.100000000000000E-011
 0.100000000000000E-011
 0.100000000000000E-011
 0.100000000000000E-011
 0.100000000000000E-011
 0.100000000000000E-011
 0.100000000000000E-011
 0.100000000000000E-011
 0.100000000000000E-011
 0.100000000000000E-011
 0.100000000000000E-011
 0.100000000000000E-011
 0.100000000000000E-011
 0.100000000000000E-011
 0.100000000000000E-011
 0.100000000000000E-011
 0.100000000000000E-011
 0.100000000000000E-011
 0.100000000000000E-011
 0.100000000000000E-011
 0.491168125936828E-001
 0.197467226343154E-001
 0.133286423210506E-001
 0.320974072551630E-001
 0.286608673806390E-001
 0.252783858984253E-001
 0.422425028576152E-001
 0.343783915877219E-001
 0.100000000000000E-011
 0.100000000000000E-011
 0.100000000000000E-011
 0.100000000000000E-011
 0.100000000000000E-011
 0.100000000000000E-011
 0.100000000000000E-011
 0.100000000000000E-011
 0.100000000000000E-011
 0.100000000000000E-011
 0.100000000000000E-011
 0.100000000000000E-011
 0.100000000000000E-011
 0.100000000000000E-011
 0.100000000000000E-011
 0.100000000000000E-011
 0.100000000000000E-011
 0.100000000000000E-011
 0.100000000000000E-011
 0.100000000000000E-011
 0.100000000000000E-011
 0.100000000000000E-011
 0.100000000000000E-011
 0.100000000000000E-011
 0.100000000000000E-011
 0.100000000000000E-011
 0.100000000000000E-011
 0.100000000000000E-011
 0.100000000000000E-011
 0.100000000000000E-011
 0.100000000000000E-011
 0.100000000000000E-011
 0.100000000000000E-011
 0.100000000000000E-011
 0.100000000000000E-011
 0.100000000000000E-011
 0.100000000000000E-011
 0.100000000000000E-011
 0.100000000000000E-011
 0.100000000000000E-011
 0.100000000000000E-011
 0.100000000000000E-011
 0.100000000000000E-011
 0.100000000000000E-011
 0.100000000000000E-011
 0.100000000000000E-011
 0.100000000000000E-011
 0.100000000000000E-011
 0.469843321424176E-001
 0.271564550883841E-001
 0.126801729067521E-001
 0.261280044674466E-001
 0.126240944325365E-005
 0.218395019189882E-005
 0.865026646911151E-007
 0.131043453458164E-005
 0.130207439971000E-004
 0.107956418116900E-005
 0.100203544874900E-005
 0.113275802413550E-005
 0.111290411694431E+000
 0.108748081649522E+000
 0.900560525378183E-001
 0.111670332328134E+000
 0.365501007658881E-003
 0.382184074096129E-002
 0.650478133522208E-003
 0.527519035269315E-003
 0.194645065490369E-011
 0.208235511929414E-010
 0.708170215985863E-011
 0.679631479695812E-011
 0.158307298726672E-011
 0.213945645771742E-011
 0.236322018419617E-010
 0.194399808258320E-011
 0.783228325128209E-003
 0.114587719799810E-004
 0.260138073717818E-004
 0.197661421562441E-004
 0.110330280383513E-001
 0.265412246736178E-001
 0.293351723530267E-002
 0.103360474912731E-001
 0.995142913006314E-007
 0.233108629893299E-005
 0.344604609240911E-006
 0.322156690643357E-006
 0.119999004920234E-004
 0.411006791605505E-004
 0.260698525291978E-004
 0.346146808747312E-004
 0.231241276912695E-004
 0.116831113799641E-004
 0.251440557504264E-004
 0.244716789275922E-004
 0.271248733407252E-006
 0.458611339527688E-006
 0.543321940413370E-007
 0.239937499291221E-006
 0.103186979740436E-008
 0.171714862328439E-009
 0.240593749374982E-008
 0.822095673098491E-009
 0.329214813153861E-003
 0.706788542322379E-003
 0.352635570750317E-002
 0.559096678158073E-003
 0.136107804287756E-009
 0.109780469805924E-008
 0.220390851264891E-008
 0.118329915376628E-008
 0.397727662064014E-009
 0.421257073522672E-011
 0.420796936788115E-011
 0.455623177416065E-011
 0.426858798434180E-007
 0.129204835651274E-007
 0.661924631817819E-006
 0.421433225399738E-007
 0.100000000000000E-011
 0.100000000000000E-011
 0.100000000000000E-011
 0.100000000000000E-011
 0.581897859433065E-009
 0.665516675702689E-010
 0.293413470621759E-010
 0.674350639434525E-010
 0.513690816546889E-011
 0.469032542772095E-009
 0.100573649282163E-009
 0.117074184292551E-009
 0.520775027767731E-007
 0.114725637814626E-008
 0.678374926512520E-008
 0.636885076418440E-008
 0.130036554140569E+000
 0.131526825922425E+000
 0.129837223893805E+000
 0.131628569704433E+000
 0.153447190906569E-003
 0.168856168681854E-003
 0.126796832369926E-004
 0.161790774447455E-003
 0.303510132765696E-002
 0.631346115201228E-002
 0.120940988213002E-001
 0.655205625192902E-002
 0.112706720131201E-005
 0.125652743671058E-004
 0.118529883012257E-004
 0.119055777479144E-004
 0.114441391754890E+000
 0.117546501059795E+000
 0.120394617284522E+000
 0.117274782066586E+000
 0.684100994600876E-001
 0.938756651007779E-001
 0.785290681416242E-001
 0.750057571548271E-001
 0.852623149273635E-001
 0.121802884501275E+000
 0.112225681704709E+000
 0.115850430598515E+000
 0.281773409942908E-002
 0.259094774279122E-001
 0.792201546138517E-002
 0.846154612080902E-002
 0.123029047974061E-001
 0.510592813120433E-001
 0.181180708552353E-001
 0.162847314107870E-001
 0.103472196454408E+000
 0.944049126667881E-001
 0.852680372435776E-001
 0.928391312449248E-001
 0.122660458233891E+000
 0.119395440612631E+000
 0.121061823620403E+000
 0.119243389393044E+000
 0.138649101702919E+000
 0.123081329122536E+000
 0.131766048824054E+000
 0.135261588298793E+000
 0.328581732478867E-001
 0.935868071430734E-001
 0.593760464083089E-001
 0.584089685066230E-001
 0.123773278376742E+000
 0.122341559189885E+000
 0.126752765822525E+000
 0.126039303446159E+000
 0.123879272910063E+000
 0.127476943591344E+000
 0.129070409831247E+000
 0.125745856914329E+000
 0.121921282427780E+000
 0.987326016949924E-001
 0.126719378534678E+000
 0.124150836516359E+000
 0.111748148955105E+000
 0.985863582589916E-001
 0.121260693645666E+000
 0.111333760485204E+000
 0.131735385511100E+000
 0.132967175482512E+000
 0.138333362945797E+000
 0.135883625877278E+000
 0.124256852820666E+000
 0.130069729182703E+000
 0.141230449171035E+000
 0.128847439575690E+000
 0.426724491294867E-001
 0.813060317966451E-001
 0.358701544003488E-001
 0.403866196688915E-001
 0.490559237342680E-001
 0.980326520050620E-001
 0.881211685872332E-001
 0.906771648633931E-001
 0.366211673963790E-001
 0.453477295158281E-001
 0.115461061794110E-001
 0.401971756492743E-001
 0.942666205363810E-001
 0.128111822488232E+000
 0.998253349660877E-001
 0.971008788283861E-001
 0.136810021853993E+000
 0.946404592218267E-001
 0.967011395943362E-001
 0.958255462115679E-001
 0.227863794416771E-001
 0.278529571653090E-001
 0.567835180164717E-001
 0.269475954730496E-001
 0.279007948708310E-003
 0.470772001266851E-004
 0.486483733304218E-003
 0.335084671874784E-003
 0.121256380006228E+000
 0.859619148380532E-001
 0.822293491951713E-001
 0.851810394544589E-001
 0.522527268672357E-001
 0.732316020986902E-001
 0.100553297615338E+000
 0.696990655567809E-001
 0.330646935175779E+000
 0.282178115470070E+000
 0.311053943005197E+000
 0.313880021250069E+000
 0.216612935955125E+000
 0.172943898369591E+000
 0.217801359486998E+000
 0.214588465869450E+000
 0.508732158848515E-001
 0.846728835209842E-001
 0.429310400749381E-001
 0.508656181342447E-001
 0.935768938785869E-001
 0.985109936427232E-001
 0.139766266839339E+000
 0.950007354202343E-001
 0.152272998058727E+000
 0.207669529581641E+000
 0.204493837047490E+000
 0.205240039752001E+000
 0.363178439613447E-001
 0.304507885856120E-001
 0.362164791517969E-001
 0.330721517746258E-001
 0.134698699526836E+000
 0.129510736134335E+000
 0.935512212185898E-001
 0.133339399708949E+000
 0.147581135419554E+000
 0.141988740203058E+000
 0.105907129166220E+000
 0.141166536536684E+000
 0.158024972529227E+000
 0.165859832555251E+000
 0.162571443496735E+000
 0.163902834358951E+000
 0.637829318168306E-001
 0.111516159859659E+000
 0.477533695837373E-001
 0.583405186354748E-001
 0.243580450415912E-001
 0.249759180562367E-001
 0.275019088231907E-001
 0.263706469012439E-001
 0.120626838660907E+000
 0.135407741744944E+000
 0.985091205447170E-001
 0.120025128733280E+000
 0.122609506432108E+000
 0.168041306136987E+000
 0.104403665935105E+000
 0.139765197321028E+000
 0.178842475043471E-001
 0.223235802154678E-001
 0.213954353328006E-001
 0.190207067893263E-001
 0.791193211772027E-005
 0.920005921858164E-005
 0.417637489502413E-005
 0.708078033035105E-005
 0.162092336345759E+000
 0.132339538827108E+000
 0.168846965203771E+000
 0.165463446136430E+000
 0.124309590272318E+000
 0.102789192624900E+000
 0.151368349791074E+000
 0.124683746704670E+000
 0.103259923042544E-001
 0.825821039055415E-002
 0.181777373375132E-002
 0.892155176355002E-002
 0.154207901073636E+000
 0.147572061731647E+000
 0.133297755670397E+000
 0.149118429787280E+000
 0.233767541944232E-001
 0.223668506639962E-001
 0.564146401681880E-001
 0.231331951258753E-001
 0.158927244556908E+000
 0.156750295067011E+000
 0.131983370181958E+000
 0.160185020426566E+000
 0.144229341043709E+000
 0.153222610417210E+000
 0.943110765854275E-001
 0.147547137147031E+000
 0.100166803602464E+000
 0.570478960930862E-001
 0.330985346593302E-001
 0.558990581007931E-001
 0.177947590891343E+000
 0.132254593189517E+000
 0.128411843265747E+000
 0.130773838851666E+000
 0.154105167933539E+000
 0.102497451439338E+000
 0.121694946766284E+000
 0.115905469728286E+000
 0.939617894125871E-001
 0.154587136804800E+000
 0.134126545907336E+000
 0.135550863656384E+000
 0.645606897532511E-001
 0.749069739324624E-001
 0.641805756833297E-001
 0.673689710737187E-001
 0.694256140085957E-001
 0.795458063288536E-001
 0.799353642718818E-001
 0.740692432871959E-001
 0.234739284478971E-002
 0.356667243022166E-002
 0.734724907981965E-001
 0.348407028442462E-002
 0.567251626098432E-001
 0.573372482117578E-001
 0.238056145672167E-001
 0.572856771957624E-001
 0.244974203391565E+000
 0.159606857989726E+000
 0.189341372233426E+000
 0.191757779605404E+000
 0.171853799741675E+000
 0.134765525091546E+000
 0.175112481011943E+000
 0.173902323955865E+000
 0.300170725173850E-006
 0.127400801497317E-005
 0.252481566749874E-005
 0.120657245582593E-005
 0.955581635086720E-001
 0.316107919984224E-001
 0.684802051363468E-001
 0.704706123704247E-001
 0.253779111073224E-003
 0.190009227445559E-002
 0.117906841442224E-002
 0.108976849128581E-002
 0.180567534376011E-002
 0.224363370654794E-003
 0.222943545314760E-002
 0.193159025481802E-002
 0.238656777408726E-001
 0.581514647216731E-001
 0.239069662331870E-001
 0.227325987778883E-001
 0.219971011249488E-005
 0.171815998918850E-005
 0.290712051376263E-006
 0.179753921018793E-005
 0.467192438262582E-003
 0.324021301452960E-002
 0.286600916658291E-002
 0.305072867121037E-002
 0.648862988465743E-001
 0.346954940535752E-001
 0.794494107131777E-001
 0.671201118154370E-001
 0.166873525781744E-002
 0.762371785345480E-002
 0.157426607369516E-002
 0.159374748831962E-002
 0.638675441505166E-004
 0.556187180991130E-005
 0.905120951294138E-005
 0.803100137266519E-005
 0.594580911401767E-004
 0.130018235745276E-003
 0.577647168037285E-003
 0.106923022870506E-003
 0.382183218113190E-003
 0.244241374309488E-002