# vtk DataFile Version 3.0
Unstructured Grid
ASCII
DATASET UNSTRUCTURED_GRID
FIELD FieldData 1
TIME 1 1 float
  0.150000E+01
POINTS         2588 double
 0.000000000000000E+000 0.000000000000000E+000 0.000000000000000E+000
 0.100000000000000E+001 0.000000000000000E+000 0.000000000000000E+000
 0.100000000000000E+001 0.100000000000000E+001 0.000000000000000E+000
 0.000000000000000E+000 0.100000000000000E+001 0.000000000000000E+000
 0.125000000000000E+000 0.250000000000000E+000 0.000000000000000E+000
 0.375000000000000E+000 0.250000000000000E+000 0.000000000000000E+000
 0.375000000000000E+000 0.750000000000000E+000 0.000000000000000E+000
 0.125000000000000E+000 0.750000000000000E+000 0.000000000000000E+000
 0.625000000000000E+000 0.250000000000000E+000 0.000000000000000E+000
 0.875000000000000E+000 0.250000000000000E+000 0.000000000000000E+000
 0.875000000000000E+000 0.750000000000000E+000 0.000000000000000E+000
 0.625000000000000E+000 0.750000000000000E+000 0.000000000000000E+000
 0.100000000000000E+001 0.500000000000000E+000 0.000000000000000E+000
 0.000000000000000E+000 0.500000000000000E+000 0.000000000000000E+000
 0.500000000000000E+000 0.000000000000000E+000 0.000000000000000E+000
 0.125000000000000E+000 0.500000000000000E+000 0.000000000000000E+000
 0.000000000000000E+000 0.750000000000000E+000 0.000000000000000E+000
 0.000000000000000E+000 0.250000000000000E+000 0.000000000000000E+000
 0.000000000000000E+000 0.875000000000000E+000 0.000000000000000E+000
 0.000000000000000E+000 0.125000000000000E+000 0.000000000000000E+000
 0.000000000000000E+000 0.812500000000000E+000 0.000000000000000E+000
 0.625000000000000E-001 0.812500000000000E+000 0.000000000000000E+000
 0.125000000000000E+000 0.375000000000000E+000 0.000000000000000E+000
 0.000000000000000E+000 0.375000000000000E+000 0.000000000000000E+000
 0.125000000000000E+000 0.625000000000000E+000 0.000000000000000E+000
 0.312500000000000E-001 0.781250000000000E+000 0.000000000000000E+000
 0.000000000000000E+000 0.625000000000000E+000 0.000000000000000E+000
 0.781250000000000E-001 0.765625000000000E+000 0.000000000000000E+000
 0.364583333333333E-001 0.744791666666667E+000 0.000000000000000E+000
 0.000000000000000E+000 0.687500000000000E+000 0.000000000000000E+000
 0.312500000000000E-001 0.843750000000000E+000 0.000000000000000E+000
 0.500000000000000E+000 0.100000000000000E+001 0.000000000000000E+000
 0.117915518486872E+000 0.805415518486872E+000 0.000000000000000E+000
 0.531250000000000E-001 0.896875000000000E+000 0.000000000000000E+000
 0.128125000000000E+000 0.862500000000000E+000 0.000000000000000E+000
 0.852352799227800E-001 0.850726351351351E+000 0.000000000000000E+000
 0.250000000000000E+000 0.750000000000000E+000 0.000000000000000E+000
 0.000000000000000E+000 0.937500000000000E+000 0.000000000000000E+000
 0.250000000000000E+000 0.100000000000000E+001 0.000000000000000E+000
 0.125000000000000E+000 0.100000000000000E+001 0.000000000000000E+000
 0.559955578663221E-001 0.864626829113867E+000 0.000000000000000E+000
 0.201656717908302E+000 0.819893736067327E+000 0.000000000000000E+000
 0.181985294117647E-001 0.906250000000000E+000 0.000000000000000E+000
 0.157158578892515E+000 0.827852167423944E+000 0.000000000000000E+000
 0.173219498992632E+000 0.789273026175030E+000 0.000000000000000E+000
 0.190370748034901E+000 0.885171153579592E+000 0.000000000000000E+000
 0.163362285670037E+000 0.862539079232243E+000 0.000000000000000E+000
 0.145689809422689E+000 0.911060496538305E+000 0.000000000000000E+000
 0.260169562085505E+000 0.921822264266383E+000 0.000000000000000E+000
 0.999952720236157E-001 0.900131729869707E+000 0.000000000000000E+000
 0.181336648989602E+000 0.921080529637299E+000 0.000000000000000E+000
 0.187500000000000E+000 0.100000000000000E+001 0.000000000000000E+000
 0.625000000000000E-001 0.100000000000000E+001 0.000000000000000E+000
 0.391044682108720E-001 0.939348618511729E+000 0.000000000000000E+000
 0.987901813178879E-001 0.953497897705852E+000 0.000000000000000E+000
 0.127430470763290E+000 0.938015442955272E+000 0.000000000000000E+000
 0.735147503821561E-001 0.927156548383149E+000 0.000000000000000E+000
 0.187500000000000E+000 0.750000000000000E+000 0.000000000000000E+000
 0.937500000000000E-001 0.986976003387646E+000 0.000000000000000E+000
 0.647068558612996E-001 0.964310770745732E+000 0.000000000000000E+000
 0.287348941263244E-001 0.975594752089430E+000 0.000000000000000E+000
 0.140548246895551E+000 0.780148342865875E+000 0.000000000000000E+000
 0.625000000000000E-001 0.656250000000000E+000 0.000000000000000E+000
 0.885416666666667E-001 0.718750000000000E+000 0.000000000000000E+000
 0.125000000000000E+000 0.687500000000000E+000 0.000000000000000E+000
 0.418778153153153E-001 0.701096693284193E+000 0.000000000000000E+000
 0.130000591648319E-001 0.718750000000000E+000 0.000000000000000E+000
 0.886787280701754E-001 0.682017543859649E+000 0.000000000000000E+000
 0.324539302647226E+000 0.874753539998500E+000 0.000000000000000E+000
 0.220842706957930E+000 0.911928394103011E+000 0.000000000000000E+000
 0.255656705174793E+000 0.856653769033302E+000 0.000000000000000E+000
 0.230240640268531E+000 0.957679342037283E+000 0.000000000000000E+000
 0.247273788001812E+000 0.889974781313083E+000 0.000000000000000E+000
 0.287822583654814E+000 0.892090285129540E+000 0.000000000000000E+000
 0.375000000000000E+000 0.100000000000000E+001 0.000000000000000E+000
 0.312500000000000E+000 0.100000000000000E+001 0.000000000000000E+000
 0.296339471848887E+000 0.927737349884604E+000 0.000000000000000E+000
 0.272754945277513E+000 0.963602684427479E+000 0.000000000000000E+000
 0.218750000000000E+000 0.100000000000000E+001 0.000000000000000E+000
 0.156250000000000E+000 0.970185411869689E+000 0.000000000000000E+000
 0.193067439035452E+000 0.962879965079150E+000 0.000000000000000E+000
 0.366022419631980E+000 0.930828672570042E+000 0.000000000000000E+000
 0.331917636626289E+000 0.912676918057824E+000 0.000000000000000E+000
 0.218750000000000E+000 0.780050991479902E+000 0.000000000000000E+000
 0.270314960374965E+000 0.802399429390985E+000 0.000000000000000E+000
 0.239019213447470E+000 0.823051378525603E+000 0.000000000000000E+000
 0.312500000000000E+000 0.750000000000000E+000 0.000000000000000E+000
 0.297176692881550E+000 0.838764170920897E+000 0.000000000000000E+000
 0.316491084060399E+000 0.796393690767677E+000 0.000000000000000E+000
 0.343750000000000E+000 0.770680188507291E+000 0.000000000000000E+000
 0.409908719410776E+000 0.836702006091634E+000 0.000000000000000E+000
 0.362591033297072E+000 0.817958948082628E+000 0.000000000000000E+000
 0.401086171766563E+000 0.789875587437421E+000 0.000000000000000E+000
 0.371341896832358E+000 0.864966336467817E+000 0.000000000000000E+000
 0.333452116450771E+000 0.839580614538559E+000 0.000000000000000E+000
 0.625000000000000E+000 0.500000000000000E+000 0.000000000000000E+000
 0.497245004128187E+000 0.796002674320860E+000 0.000000000000000E+000
 0.375000000000000E+000 0.625000000000000E+000 0.000000000000000E+000
 0.448383797292392E+000 0.805208595628784E+000 0.000000000000000E+000
 0.410140101146819E+000 0.755482168792868E+000 0.000000000000000E+000
 0.466643384891561E+000 0.767852445997818E+000 0.000000000000000E+000
 0.476967665188550E+000 0.732032311892081E+000 0.000000000000000E+000
 0.540753556856103E+000 0.747012385328872E+000 0.000000000000000E+000
 0.490851671729155E+000 0.896339978179292E+000 0.000000000000000E+000
 0.457989751325779E+000 0.856193010026991E+000 0.000000000000000E+000
 0.477617377726983E+000 0.826097842173926E+000 0.000000000000000E+000
 0.546397010943533E+000 0.849506899903764E+000 0.000000000000000E+000
 0.514994092174850E+000 0.829026377565149E+000 0.000000000000000E+000
 0.557956128164421E+000 0.797467818442289E+000 0.000000000000000E+000
 0.513053884697208E+000 0.866316721845202E+000 0.000000000000000E+000
 0.531719458287368E+000 0.903340824708691E+000 0.000000000000000E+000
 0.750000000000000E+000 0.100000000000000E+001 0.000000000000000E+000
 0.503122841217304E+000 0.947490703764094E+000 0.000000000000000E+000
 0.428509525448068E+000 0.913846660476909E+000 0.000000000000000E+000
 0.625000000000000E+000 0.100000000000000E+001 0.000000000000000E+000
 0.410139362032626E+000 0.877461197108989E+000 0.000000000000000E+000
 0.393550593852374E+000 0.908666538512922E+000 0.000000000000000E+000
 0.455853425536278E+000 0.891464570133054E+000 0.000000000000000E+000
 0.465565809489837E+000 0.931223943045515E+000 0.000000000000000E+000
 0.430803944763131E+000 0.957152995135723E+000 0.000000000000000E+000
 0.361862549463301E+000 0.897277191535820E+000 0.000000000000000E+000
 0.281250000000000E+000 0.768022264880110E+000 0.000000000000000E+000
 0.528016132294562E+000 0.779515446907155E+000 0.000000000000000E+000
 0.582435077211395E+000 0.760961532636893E+000 0.000000000000000E+000
 0.594258447236559E+000 0.718750000000000E+000 0.000000000000000E+000
 0.513210480866922E+000 0.721000388231171E+000 0.000000000000000E+000
 0.625000000000000E+000 0.625000000000000E+000 0.000000000000000E+000
 0.293099715520438E+000 0.681007179427844E+000 0.000000000000000E+000
 0.625000000000000E+000 0.687500000000000E+000 0.000000000000000E+000
 0.375000000000000E+000 0.500000000000000E+000 0.000000000000000E+000
 0.588365877190365E+000 0.682207614843486E+000 0.000000000000000E+000
 0.544806337802789E+000 0.700097114505632E+000 0.000000000000000E+000
 0.473117607324743E+000 0.654334216996401E+000 0.000000000000000E+000
 0.507976816774602E+000 0.678758937084175E+000 0.000000000000000E+000
 0.471770128441152E+000 0.693345422145358E+000 0.000000000000000E+000
 0.540484989053884E+000 0.595274872726202E+000 0.000000000000000E+000
 0.434924684287812E+000 0.717988149163748E+000 0.000000000000000E+000
 0.438762107036035E+000 0.672676424045669E+000 0.000000000000000E+000
 0.514022824851611E+000 0.633041943182225E+000 0.000000000000000E+000
 0.375000000000000E+000 0.687500000000000E+000 0.000000000000000E+000
[...]
CELL_DATA         5036
SCALARS tdens double 1
LOOKUP_TABLE default
 0.423262859966988E+000
 0.428436974104296E+000
 0.426819549933877E+000
 0.425852539300292E+000
 0.587696831708252E+000
 0.583968703311491E+000
 0.596900882070591E+000
 0.589442070365746E+000
 0.571595141972276E+000
 0.582658157138658E+000
 0.574489561157209E+000
 0.576061035637589E+000
 0.546255037008382E+000
 0.547903815732844E+000
 0.537664575808750E+000
 0.543913141699416E+000
 0.538091611373234E+000
 0.544128710139734E+000
 0.535299120570938E+000
 0.538973051183543E+000
 0.412843578581585E+000
 0.412897755675667E+000
 0.409976309949028E+000
 0.411721335122931E+000
 0.100691009284481E+001
 0.998307313098115E+000
 0.991883031033679E+000
 0.999582809874574E+000
 0.801228432743911E+000
 0.799071679103790E+000
 0.818693667584189E+000
 0.806508331314435E+000
 0.768171475337305E+000
 0.754672097439993E+000
 0.771163716564772E+000
 0.764377768500525E+000
 0.730163239663398E+000
 0.717250290177096E+000
 0.727307671986980E+000
 0.724712713738780E+000
 0.567531567611404E+000
 0.572719737350733E+000
 0.560411060951467E+000
 0.566732501614187E+000
 0.552812576419055E+000
 0.548186781236943E+000
 0.542830510135248E+000
 0.547918331712667E+000
 0.109035406273231E+001
 0.109694792159304E+001
 0.110605240471945E+001
 0.109856148357956E+001
 0.714773281609546E+000
 0.695584496261265E+000
 0.717436922640513E+000
 0.710132024918419E+000
 0.862084808433584E+000
 0.879413219183858E+000
 0.864135667443523E+000
 0.868769488090031E+000
 0.101823386207091E+001
 0.994796312848940E+000
 0.100406230248005E+001
 0.100641113004636E+001
 0.106090326633870E+001
 0.104547868414465E+001
 0.105854310938549E+001
 0.105524403535599E+001
 0.726444748598686E+000
 0.721896863309226E+000
 0.731456890905660E+000
 0.725883083078488E+000
 0.497624041574536E+000
 0.495760816849717E+000
 0.486515646656278E+000
 0.493219047881297E+000
 0.772446901285504E+000
 0.787670126067736E+000
 0.789913681894393E+000
 0.783041952812942E+000
 0.498692253341232E+000
 0.495736976025127E+000
 0.490348900876086E+000
 0.494976711737245E+000
 0.669501734161729E+000
 0.650186950328845E+000
 0.660038654790993E+000
 0.659853794943410E+000
 0.626698893535831E+000
 0.615390938428313E+000
 0.617987113665884E+000
 0.619697905439888E+000
 0.677699305606007E+000
 0.676251648874199E+000
 0.666956844362989E+000
 0.673389301141164E+000
 0.525822293375740E+000
 0.518323399558548E+000
 0.527941608789048E+000
 0.524120890788844E+000
 0.735196245487749E+000
 0.739036385832244E+000
 0.749871442999059E+000
 0.741234763990358E+000
 0.687124758114082E+000
 0.689594880379058E+000
 0.701195260611082E+000
 0.692706824314144E+000
 0.617759853845669E+000
 0.614662602454883E+000
 0.606084455379095E+000
 0.612522107076301E+000
 0.635685915250884E+000
 0.637026509109223E+000
 0.623031946357235E+000
 0.631636559321514E+000
 0.531514350006733E+000
 0.526485978387552E+000
 0.534793137853815E+000
 0.530929112287375E+000
 0.444503819071659E+000
 0.446357150025744E+000
 0.449031263059084E+000
 0.446626026241180E+000
 0.750604811831276E+000
 0.733370397874207E+000
 0.738143966727033E+000
 0.741050060208301E+000
 0.589358496587149E+000
 0.601658612344071E+000
 0.599941995765425E+000
 0.596800754744289E+000
 0.718690688593078E+000
 0.699340714866522E+000
 0.713840502156391E+000
 0.711798603022081E+000
 0.495765737139512E+000
 0.480860554897684E+000
 0.481501967318205E+000
 0.485984512335720E+000
 0.642158992064375E+000
 0.653225035381100E+000
 0.643380648061643E+000
 0.646238629382824E+000
 0.449265373630613E+000
 0.453317226618177E+000
 0.447603216296927E+000
 0.449943448136301E+000
 0.699205084353284E+000
 0.708720926951464E+000
 0.689036583627603E+000
 0.698938089040284E+000
 0.624636449464950E+000
 0.614666860960806E+000
 0.635831923530513E+000
 0.625165220884321E+000
 0.644184352902373E+000
 0.651745380111156E+000
 0.655328721682812E+000
 0.650381363469868E+000
 0.673714588379316E+000
 0.662638864710305E+000
 0.659342917129708E+000
 0.665129290130564E+000
 0.715424833453627E+000
 0.701737548841737E+000
 0.720159133579927E+000
 0.711995505581289E+000
 0.596581619912126E+000
 0.580446463170771E+000
 0.588510970933469E+000
 0.588434811107920E+000
 0.682610534388024E+000
 0.684171877452852E+000
 0.693002552020213E+000
 0.686657773319710E+000
 0.631481754198544E+000
 0.613500771030590E+000
 0.622403357403541E+000
 0.622382943287413E+000
 0.756434423421096E+000
 0.743223963342793E+000
 0.754400961643803E+000
 0.750934159492089E+000
 0.953928172727479E+000
 0.935032934794192E+000
 0.954812618799061E+000
 0.947707904812522E+000
 0.722850534340939E+000
 0.737334060028775E+000
 0.733008902262594E+000
 0.730733921374285E+000
 0.677537213883056E+000
 0.658094520503630E+000
 0.670532830483309E+000
 0.668976203432465E+000
 0.720009027072675E+000
 0.718413950903930E+000
 0.728505492632703E+000
 0.722210067744106E+000
 0.677779510081542E+000
 0.663247809441639E+000
 0.679338801624123E+000
 0.673480082375499E+000
 0.760361231781613E+000
 0.767393467102070E+000
 0.751610542383924E+000
 0.759883505571361E+000
 0.717940945113932E+000
 0.708983586348681E+000
 0.698528188900979E+000
 0.707911598170099E+000
 0.714526689515517E+000
 0.705267579564650E+000
 0.712680267282066E+000
 0.710379913786279E+000
 0.690597395680315E+000
 0.706803917347956E+000
 0.699179885704792E+000
 0.698791973877983E+000
 0.718568714770778E+000
 0.716264743084813E+000
 0.733133532376398E+000
 0.722488145057017E+000
 0.734283383483932E+000
 0.724089092320026E+000
 0.732348204745520E+000
 0.730383990602799E+000
 0.683311944249565E+000
 0.673387447895246E+000
 0.671098218619646E+000
 0.676698178562287E+000
 0.751513434056115E+000
 0.741233985112234E+000
 0.747145598454677E+000
 0.747245257027493E+000
 0.692289539867571E+000
 0.706057208015698E+000
 0.708568012685437E+000
 0.702147807450253E+000
 0.794169650089320E+000
 0.784667559833155E+000
 0.781488798033705E+000
 0.786953080919725E+000
 0.734964279727916E+000
 0.717881661767069E+000
 0.726101923727522E+000
 0.726554615476626E+000
 0.620683096852966E+000
 0.623016526013404E+000
 0.608959647343390E+000
 0.616341576098039E+000
 0.769861770104307E+000
 0.758645982868485E+000
 0.751808707904288E+000
 0.760427828024183E+000
 0.748458344954399E+000
 0.728371414935430E+000
 0.738522892616924E+000
 0.738365781540274E+000
 0.657594606231421E+000
 0.655178836493373E+000
 0.674191465280256E+000
 0.662012596291000E+000
 0.732000156519803E+000
 0.742383981946353E+000
 0.736711318648249E+000
 0.736559971959030E+000
 0.679690189112665E+000
 0.693356750533336E+000
 0.698671879948530E+000
 0.691654607949986E+000
 0.646363532197689E+000
 0.638892219455563E+000
 0.656794444535601E+000
 0.645631735141484E+000
 0.749631616602061E+000
 0.738610151513762E+000
 0.735524786206636E+000
 0.741371339983305E+000
 0.775823717601094E+000
 0.758166974609538E+000
 0.772708929227884E+000
 0.768024687041012E+000
 0.727106918338150E+000
 0.730932483580112E+000
 0.722113679876285E+000
 0.727085936910583E+000
 0.756217272581676E+000
 0.743863296735968E+000
 0.754283216938155E+000
 0.750554949604637E+000
 0.770834330638272E+000
 0.762721812290897E+000
 0.760513716915174E+000
 0.765057299465642E+000
 0.783449459753034E+000
 0.781049753308440E+000
 0.796253059860190E+000
 0.786788344966028E+000
 0.809544076067175E+000
 0.791750981628972E+000
 0.801420478144016E+000
 0.800463565496613E+000
 0.804134207408220E+000
 0.811922794851342E+000
 0.791004171651007E+000
 0.801970606951810E+000
 0.734993991253664E+000
 0.752301909697392E+000
 0.743682324516854E+000
 0.743265062550928E+000
 0.774406274479538E+000
 0.773329885647680E+000
 0.766351590976149E+000
 0.770704691088816E+000
 0.774944028062429E+000
 0.764691863799142E+000
 0.777702390345301E+000
 0.771937252012086E+000
 0.802462829504766E+000
 0.796659965551419E+000
 0.810561062359088E+000
 0.803418702877615E+000
 0.811384392468849E+000
 0.802894387385149E+000
 0.790769776701637E+000
 0.801748826972383E+000
 0.807134084920603E+000
 0.792977513228271E+000
 0.810893366877800E+000
 0.803506471336623E+000
 0.762725959328936E+000
 0.764476894552318E+000
 0.776269088265514E+000
 0.767976132202374E+000
 0.745763210218990E+000
 0.757013466141520E+000
 0.755562175232703E+000
 0.752383129937471E+000
 0.739738247798916E+000
 0.752942062778019E+000
 0.741520531223049E+000
 0.744962483963786E+000
 0.784276066798154E+000
 0.796371987299183E+000
 0.785135871080258E+000
 0.788809109326543E+000
 0.821783488960357E+000
 0.836633946472838E+000
 0.818013938432380E+000
 0.825534396511369E+000
 0.769407730647105E+000
 0.783035884575942E+000
 0.790481678291796E+000
 0.780556746016918E+000
 0.755123282499364E+000
 0.770903999199257E+000
 0.773360941314594E+000
 0.765831511573969E+000
 0.744287859554078E+000
 0.751132869303829E+000
 0.739822139733300E+000
 0.745313138155190E+000
 0.777660612338482E+000
 0.765367030245594E+000
 0.776757693178820E+000
 0.772834722219747E+000
 0.697236778585041E+000
 0.689515485889808E+000
 0.678314192059983E+000
 0.687606286266623E+000
 0.682214686914983E+000
 0.705393284201537E+000
 0.689178487504366E+000
 0.691652943715828E+000
 0.816425500518917E+000
 0.810289994047753E+000
 0.808021231031606E+000
 0.811423617717981E+000
 0.790145663133228E+000
 0.801544097823072E+000
 0.803736973390986E+000
 0.798040725179432E+000
 0.791490711457650E+000
 0.803010512436208E+000
 0.798890346299835E+000
 0.797447999854697E+000
 0.761910650325722E+000
 0.774107421554738E+000
 0.763839392712417E+000
 0.766853661208897E+000
 0.768790140479269E+000
 0.779068571535984E+000
 0.780733240360935E+000
 0.775779992286669E+000
 0.799890443360013E+000
 0.788147828782387E+000
 0.786634271583863E+000
 0.791742120655094E+000
 0.662807410317146E+000
 0.665837940352954E+000
 0.652275783288447E+000
 0.660470118411743E+000
 0.705582474557765E+000
 0.682473789489171E+000
 0.692135987965786E+000
 0.693422755868836E+000
 0.647422038013425E+000
 0.632643776124802E+000
 0.644276438202066E+000
 0.641380589329275E+000
 0.562602353319080E+000
 0.556995101553288E+000
 0.573798697947978E+000
 0.564206074527818E+000
 0.613105375168157E+000
 0.608428377649498E+000
 0.618696843462929E+000
 0.613489130196140E+000
 0.602991619624876E+000
 0.607366847160513E+000
 0.595942468701422E+000
 0.601889736286909E+000
 0.624694606055436E+000
 0.631509543098817E+000
 0.618838224780379E+000
 0.624909627020724E+000
 0.638213743267199E+000
 0.631361508952168E+000
 0.645822418482683E+000
 0.638392019852792E+000
 0.628016935357600E+000
 0.635860702387338E+000
 0.637173049568131E+000
 0.633598970390512E+000
 0.607353796125223E+000
 0.603401556470684E+000
 0.595237055094470E+000
 0.601863389807455E+000
 0.608985654191085E+000
 0.613025912148842E+000
 0.617767109985681E+000
 0.613237834067723E+000
 0.631143699444068E+000
 0.623319199079594E+000
 0.618501017343948E+000
 0.624301802922677E+000
 0.608977948997856E+000
 0.617823138377318E+000
 0.607658810469154E+000
 0.611214595350706E+000
 0.596946748062783E+000
 0.590101149528828E+000
 0.584157002787153E+000
 0.590374683268452E+000
 0.778473448354320E+000
 0.793774123912287E+000
 0.788836581175265E+000
 0.786809763495155E+000
 0.810359320145644E+000
 0.818577099708939E+000
 0.827890760774570E+000
 0.818613103553722E+000
 0.831757565169329E+000
 0.855128995689235E+000
 0.845823173507704E+000
 0.844466829074103E+000
 0.716712987168819E+000
 0.727031567338238E+000
 0.731155338816268E+000
 0.724754349834045E+000
 0.775653652058578E+000
 0.766399927878336E+000
 0.782434990555787E+000
 0.774726475954532E+000
 0.835463079987841E+000
 0.821458544412918E+000
 0.840215209727799E+000
 0.832225212328048E+000
 0.828129225715576E+000
 0.811887977185473E+000
 0.814328565641275E+000
 0.818302006749743E+000
 0.754280867957713E+000
 0.771844179253273E+000
 0.759146018587500E+000
 0.762352441668671E+000
 0.763292837798308E+000
 0.763502613363139E+000
 0.779213524445765E+000
 0.768887241461912E+000
 0.835467757013572E+000
 0.826047998810152E+000
 0.840819700558250E+000
 0.834131544055290E+000
 0.795641545010050E+000
 0.782971827736062E+000
 0.789967602353583E+000
 0.789315537510785E+000
 0.814669845172025E+000
 0.813853871262481E+000
 0.799788596296783E+000
 0.809090180356054E+000
 0.874990920787965E+000
 0.881980677557457E+000
 0.894584703984186E+000
 0.883827563291932E+000
 0.869430316090221E+000
 0.858389920612509E+000
 0.847583297138875E+000
 0.858349195281479E+000
 0.809748340778067E+000
 0.794974731627168E+000
 0.795197746387001E+000
 0.800167269545741E+000
 0.848035191498686E+000
 0.828006915104477E+000
 0.837419713170789E+000
 0.837521034247579E+000
 0.781126628317239E+000
 0.795530549124272E+000
 0.780155421529799E+000
 0.785979548226936E+000
 0.827715746516708E+000
 0.818426201228224E+000
 0.810085250778221E+000
 0.818887486673020E+000
 0.829977134349654E+000
 0.821679766707117E+000
 0.813860052156826E+000
 0.821692681932438E+000
 0.829678955918799E+000
 0.849814693787979E+000
 0.844711850223142E+000
 0.841349467164569E+000
 0.801838313962592E+000
 0.787471573175918E+000
 0.804281299513167E+000
 0.797543850988129E+000
 0.786216685663604E+000
 0.800086265183408E+000
 0.783523349747474E+000
 0.790026938580381E+000
 0.735880139669659E+000
 0.754289691945025E+000
 0.739906498617872E+000
 0.743489447477610E+000
 0.852807504626914E+000
 0.862423938239401E+000
 0.879706462992255E+000
 0.864752979237480E+000
 0.811614526124843E+000
 0.796933578209104E+000
 0.802045014443772E+000
 0.803598692192891E+000
 0.855265036390452E+000
 0.831972136812568E+000
 0.845297170028768E+000
 0.843582350085091E+000
 0.709135061677043E+000
 0.701460440169192E+000
 0.719524351202574E+000
 0.710306147038335E+000
 0.699040120029168E+000
 0.706142062610832E+000
 0.717106861694412E+000
 0.707549689740070E+000
 0.763756087454677E+000
 0.747016124098234E+000
 0.761471561728735E+000
 0.757100665643022E+000
 0.785085846662601E+000
 0.769029255244979E+000
 0.785159588860636E+000
 0.779389141405989E+000
 0.747640574330170E+000
 0.741584562679063E+000
 0.752609014467676E+000
 0.747435614711506E+000
 0.715240959302426E+000
 0.731141288867722E+000
 0.725264686748830E+000
 0.725003814765203E+000
 0.720297163162079E+000
 0.701585188721428E+000
 0.710288016114430E+000
 0.710546326146292E+000
 0.610788259876852E+000
 0.614169040096836E+000
 0.606942640322754E+000
 0.610676509721741E+000
 0.753745259507457E+000
 0.739092097975458E+000
 0.753541628537435E+000
 0.748619602370764E+000
 0.727198204455018E+000
 0.717525777665287E+000
 0.730818257299959E+000
 0.725147577830931E+000
 0.714900188655476E+000
 0.726173673535888E+000
 0.730373832104846E+000
 0.723598599102283E+000
 0.733317475493758E+000
 0.732236557139710E+000
 0.749847143823173E+000
 0.738453055315026E+000
 0.712754588215427E+000
 0.722826946392991E+000
 0.724203127385551E+000
 0.719846205766697E+000
 0.758677765947437E+000
 0.740008388766024E+000
 0.756538058499561E+000
 0.751469945413145E+000
 0.785212236946991E+000
 0.769755412017751E+000
 0.767856630935066E+000
 0.774402595328512E+000
 0.803774960520814E+000
 0.801741470595216E+000
 0.816018907201967E+000
 0.807352404636315E+000
 0.794105890875438E+000
 0.776497591797302E+000
 0.791955459947890E+000
 0.787170376322070E+000
 0.765547796921954E+000
 0.771435632749409E+000
 0.781673059160695E+000
 0.772761379085045E+000
 0.743340295799914E+000
 0.752566816874191E+000
 0.734738190521431E+000
 0.743495218341112E+000
 0.781134631106422E+000
 0.756547233218585E+000
 0.773203385023659E+000
 0.770134464099537E+000
 0.846413337444154E+000
 0.831001139886190E+000
 0.834226543558842E+000
 0.837320885932782E+000
 0.838476526783376E+000
 0.841150294848717E+000
 0.827890440998849E+000
 0.835536663092667E+000
 0.745848022393727E+000
 0.762357274244737E+000
 0.756631520276885E+000
 0.755025813592358E+000
 0.789374752302536E+000
 0.774090658202928E+000
 0.771945431805645E+000
 0.778697057503672E+000
 0.714120731054302E+000
 0.686620721327487E+000
 0.699558264875109E+000
 0.700190083136525E+000
 0.848601968461290E+000
 0.837697366457366E+000
 0.828600427443922E+000
 0.837772090460815E+000
 0.770268782090631E+000
 0.776549449971551E+000
 0.798580122643903E+000
 0.782066794874708E+000
 0.852512964662297E+000
 0.835120886473006E+000
 0.829499073674153E+000
 0.839062734643590E+000
 0.658858001890763E+000
 0.662452728344086E+000
 0.647934994043408E+000
 0.656670493622626E+000
 0.799535062273801E+000
 0.779881966650245E+000
 0.771294427477963E+000
 0.783356504758337E+000
 0.778559592311490E+000
 0.763444743304776E+000
 0.754197438767374E+000
 0.765402177821022E+000
 0.803402964437308E+000
 0.817473812804835E+000
 0.823133683345195E+000
 0.814149382084039E+000
 0.657293475943149E+000
 0.668855299380457E+000
 0.655811431269766E+000
 0.660514455155191E+000
 0.708918014323675E+000
 0.709318854928085E+000
 0.721874284350951E+000
 0.713588220700677E+000
 0.746346339917226E+000
 0.740140103437283E+000
 0.762894661685160E+000
 0.749677236193231E+000
 0.801336205960726E+000
 0.792353349182391E+000
 0.784599988810873E+000
 0.792458593222961E+000
 0.683934015295437E+000
 0.710540960028759E+000
 0.690262276022319E+000
 0.695024338845832E+000
 0.696653399207450E+000
 0.705108938915087E+000
 0.715827842001713E+000
 0.705879582112463E+000
 0.666186750896938E+000
 0.652273491443510E+000
 0.650902816293051E+000
 0.655996530364819E+000
 0.846926027142705E+000
 0.848638258090501E+000
 0.862787313602779E+000
 0.853212080825020E+000
 0.815905060791794E+000
 0.818858884162264E+000
 0.831616429375791E+000
 0.822596570287210E+000
 0.811369124069815E+000
 0.823678233138715E+000
 0.831559356667087E+000
 0.821878976592966E+000
 0.813565784558225E+000
 0.799453608246502E+000
 0.808425564718275E+000
 0.807257085486288E+000
 0.865488994615772E+000
 0.855156735298181E+000
 0.842880435927099E+000
 0.854522897082364E+000
 0.832565685215714E+000
 0.821883415634215E+000
 0.816865215096265E+000
 0.823734192108523E+000
 0.831215357162332E+000
 0.841953995750834E+000
 0.854390594807153E+000
 0.842451958279824E+000
 0.884696841552660E+000
 0.904037854385789E+000
 0.899758281963715E+000
 0.895671244997893E+000
 0.889221367329564E+000
 0.860417357153596E+000
 0.878937050684854E+000
 0.875998415833158E+000
 0.837844955409583E+000
 0.825157438750502E+000
 0.839703904763209E+000
 0.833655737124894E+000
 0.863462305672895E+000
 0.851019758708195E+000
 0.866856371793789E+000
 0.860079777643384E+000
 0.815512799825012E+000
 0.832587169216073E+000
 0.836642156779476E+000
 0.827970215671984E+000
 0.849574403786222E+000
 0.845705579710528E+000
 0.868018743921217E+000
 0.854322541568581E+000
 0.106162671265235E+001
 0.105554355605187E+001
 0.104113789597564E+001
 0.105395354347565E+001
 0.844610135582242E+000
 0.862127472688938E+000
 0.867318981693455E+000
 0.857769491828137E+000
 0.935751658765231E+000
 0.948507611466640E+000
 0.924936679680821E+000
 0.937570910625862E+000
 0.873069471526934E+000
 0.859090616032714E+000
 0.887619149407471E+000
 0.873080506513173E+000
 0.917598543010206E+000
 0.891111328106132E+000
 0.898432848317570E+000
 0.902385194617598E+000
 0.876680683572289E+000
 0.891879765974832E+000
 0.873418320463227E+000
 0.880987218399483E+000
 0.921226429919630E+000
 0.911981732670754E+000
 0.928203271322508E+000
 0.920071154225686E+000
 0.902131748931298E+000
 0.911422628500970E+000
 0.888667020610734E+000
 0.900318902847093E+000
 0.879200146595918E+000
 0.874109782477393E+000
 0.892658613501871E+000
 0.882120796121267E+000
 0.906193913203005E+000
 0.921546902655959E+000
 0.925464467147012E+000
 0.917360285217304E+000
 0.882471558312841E+000
 0.865127311661526E+000
 0.875559161970751E+000
 0.874104233136847E+000
 0.824451623260456E+000
 0.821359266364993E+000
 0.807025145719456E+000
 0.817289364619740E+000
 0.841245428143973E+000
 0.833384857403385E+000
 0.850750280600313E+000
 0.841899740100917E+000
 0.896772354448916E+000
 0.914144668729281E+000
 0.898825955040816E+000
 0.903463061665421E+000
 0.837281038673810E+000
 0.824038503218516E+000
 0.824129523580856E+000
 0.828669158816100E+000
 0.893222603323098E+000
 0.886187074841354E+000