# vtk DataFile Version 3.0
Unstructured Grid
ASCII
DATASET UNSTRUCTURED_GRID
FIELD FieldData 1
TIME 1 1 float
  0.712500E+01
POINTS         2588 double
 0.000000000000000E+000 0.000000000000000E+000 0.000000000000000E+000
 0.100000000000000E+001 0.000000000000000E+000 0.000000000000000E+000
 0.100000000000000E+001 0.100000000000000E+001 0.000000000000000E+000
 0.000000000000000E+000 0.100000000000000E+001 0.000000000000000E+000
 0.125000000000000E+000 0.250000000000000E+000 0.000000000000000E+000
 0.375000000000000E+000 0.250000000000000E+000 0.000000000000000E+000
 0.375000000000000E+000 0.750000000000000E+000 0.000000000000000E+000
 0.125000000000000E+000 0.750000000000000E+000 0.000000000000000E+000
 0.625000000000000E+000 0.250000000000000E+000 0.000000000000000E+000
 0.875000000000000E+000 0.250000000000000E+000 0.000000000000000E+000
 0.875000000000000E+000 0.750000000000000E+000 0.000000000000000E+000
 0.625000000000000E+000 0.750000000000000E+000 0.000000000000000E+000
 0.100000000000000E+001 0.500000000000000E+000 0.000000000000000E+000
 0.000000000000000E+000 0.500000000000000E+000 0.000000000000000E+000
 0.500000000000000E+000 0.000000000000000E+000 0.000000000000000E+000
 0.125000000000000E+000 0.500000000000000E+000 0.000000000000000E+000
 0.000000000000000E+000 0.750000000000000E+000 0.000000000000000E+000
 0.000000000000000E+000 0.250000000000000E+000 0.000000000000000E+000
 0.000000000000000E+000 0.875000000000000E+000 0.000000000000000E+000
 0.000000000000000E+000 0.125000000000000E+000 0.000000000000000E+000
 0.000000000000000E+000 0.812500000000000E+000 0.000000000000000E+000
 0.625000000000000E-001 0.812500000000000E+000 0.000000000000000E+000
 0.125000000000000E+000 0.375000000000000E+000 0.000000000000000E+000
 0.000000000000000E+000 0.375000000000000E+000 0.000000000000000E+000
 0.125000000000000E+000 0.625000000000000E+000 0.000000000000000E+000
 0.312500000000000E-001 0.781250000000000E+000 0.000000000000000E+000
 0.000000000000000E+000 0.625000000000000E+000 0.000000000000000E+000
 0.781250000000000E-001 0.765625000000000E+000 0.000000000000000E+000
 0.364583333333333E-001 0.744791666666667E+000 0.000000000000000E+000
 0.000000000000000E+000 0.687500000000000E+000 0.000000000000000E+000
 0.312500000000000E-001 0.843750000000000E+000 0.000000000000000E+000
 0.500000000000000E+000 0.100000000000000E+001 0.000000000000000E+000
 0.117915518486872E+000 0.805415518486872E+000 0.000000000000000E+000
 0.531250000000000E-001 0.896875000000000E+000 0.000000000000000E+000
 0.128125000000000E+000 0.862500000000000E+000 0.000000000000000E+000
 0.852352799227800E-001 0.850726351351351E+000 0.000000000000000E+000
 0.250000000000000E+000 0.750000000000000E+000 0.000000000000000E+000
 0.000000000000000E+000 0.937500000000000E+000 0.000000000000000E+000
 0.250000000000000E+000 0.100000000000000E+001 0.000000000000000E+000
 0.125000000000000E+000 0.100000000000000E+001 0.000000000000000E+000
 0.559955578663221E-001 0.864626829113867E+000 0.000000000000000E+000
 0.201656717908302E+000 0.819893736067327E+000 0.000000000000000E+000
 0.181985294117647E-001 0.906250000000000E+000 0.000000000000000E+000
 0.157158578892515E+000 0.827852167423944E+000 0.000000000000000E+000
 0.173219498992632E+000 0.789273026175030E+000 0.000000000000000E+000
 0.190370748034901E+000 0.885171153579592E+000 0.000000000000000E+000
 0.163362285670037E+000 0.862539079232243E+000 0.000000000000000E+000
 0.145689809422689E+000 0.911060496538305E+000 0.000000000000000E+000
 0.260169562085505E+000 0.921822264266383E+000 0.000000000000000E+000
 0.999952720236157E-001 0.900131729869707E+000 0.000000000000000E+000
 0.181336648989602E+000 0.921080529637299E+000 0.000000000000000E+000
 0.187500000000000E+000 0.100000000000000E+001 0.000000000000000E+000
 0.625000000000000E-001 0.100000000000000E+001 0.000000000000000E+000
 0.391044682108720E-001 0.939348618511729E+000 0.000000000000000E+000
 0.987901813178879E-001 0.953497897705852E+000 0.000000000000000E+000
 0.127430470763290E+000 0.938015442955272E+000 0.000000000000000E+000
 0.735147503821561E-001 0.927156548383149E+000 0.000000000000000E+000
 0.187500000000000E+000 0.750000000000000E+000 0.000000000000000E+000
 0.937500000000000E-001 0.986976003387646E+000 0.000000000000000E+000
 0.647068558612996E-001 0.964310770745732E+000 0.000000000000000E+000
 0.287348941263244E-001 0.975594752089430E+000 0.000000000000000E+000
 0.140548246895551E+000 0.780148342865875E+000 0.000000000000000E+000
 0.625000000000000E-001 0.656250000000000E+000 0.000000000000000E+000
 0.885416666666667E-001 0.718750000000000E+000 0.000000000000000E+000
 0.125000000000000E+000 0.687500000000000E+000 0.000000000000000E+000
 0.418778153153153E-001 0.701096693284193E+000 0.000000000000000E+000
 0.130000591648319E-001 0.718750000000000E+000 0.000000000000000E+000
 0.886787280701754E-001 0.682017543859649E+000 0.000000000000000E+000
 0.324539302647226E+000 0.874753539998500E+000 0.000000000000000E+000
 0.220842706957930E+000 0.911928394103011E+000 0.000000000000000E+000
 0.255656705174793E+000 0.856653769033302E+000 0.000000000000000E+000
 0.230240640268531E+000 0.957679342037283E+000 0.000000000000000E+000
 0.247273788001812E+000 0.889974781313083E+000 0.000000000000000E+000
 0.287822583654814E+000 0.892090285129540E+000 0.000000000000000E+000
 0.375000000000000E+000 0.100000000000000E+001 0.000000000000000E+000
 0.312500000000000E+000 0.100000000000000E+001 0.000000000000000E+000
 0.296339471848887E+000 0.927737349884604E+000 0.000000000000000E+000
 0.272754945277513E+000 0.963602684427479E+000 0.000000000000000E+000
 0.218750000000000E+000 0.100000000000000E+001 0.000000000000000E+000
 0.156250000000000E+000 0.970185411869689E+000 0.000000000000000E+000
 0.193067439035452E+000 0.962879965079150E+000 0.000000000000000E+000
 0.366022419631980E+000 0.930828672570042E+000 0.000000000000000E+000
 0.331917636626289E+000 0.912676918057824E+000 0.000000000000000E+000
 0.218750000000000E+000 0.780050991479902E+000 0.000000000000000E+000
 0.270314960374965E+000 0.802399429390985E+000 0.000000000000000E+000
 0.239019213447470E+000 0.823051378525603E+000 0.000000000000000E+000
 0.312500000000000E+000 0.750000000000000E+000 0.000000000000000E+000
 0.297176692881550E+000 0.838764170920897E+000 0.000000000000000E+000
 0.316491084060399E+000 0.796393690767677E+000 0.000000000000000E+000
 0.343750000000000E+000 0.770680188507291E+000 0.000000000000000E+000
 0.409908719410776E+000 0.836702006091634E+000 0.000000000000000E+000
 0.362591033297072E+000 0.817958948082628E+000 0.000000000000000E+000
 0.401086171766563E+000 0.789875587437421E+000 0.000000000000000E+000
 0.371341896832358E+000 0.864966336467817E+000 0.000000000000000E+000
 0.333452116450771E+000 0.839580614538559E+000 0.000000000000000E+000
 0.625000000000000E+000 0.500000000000000E+000 0.000000000000000E+000
 0.497245004128187E+000 0.796002674320860E+000 0.000000000000000E+000
 0.375000000000000E+000 0.625000000000000E+000 0.000000000000000E+000
 0.448383797292392E+000 0.805208595628784E+000 0.000000000000000E+000
 0.410140101146819E+000 0.755482168792868E+000 0.000000000000000E+000
 0.466643384891561E+000 0.767852445997818E+000 0.000000000000000E+000
 0.476967665188550E+000 0.732032311892081E+000 0.000000000000000E+000
 0.540753556856103E+000 0.747012385328872E+000 0.000000000000000E+000
 0.490851671729155E+000 0.896339978179292E+000 0.000000000000000E+000
 0.457989751325779E+000 0.856193010026991E+000 0.000000000000000E+000
 0.477617377726983E+000 0.826097842173926E+000 0.000000000000000E+000
 0.546397010943533E+000 0.849506899903764E+000 0.000000000000000E+000
 0.514994092174850E+000 0.829026377565149E+000 0.000000000000000E+000
 0.557956128164421E+000 0.797467818442289E+000 0.000000000000000E+000
 0.513053884697208E+000 0.866316721845202E+000 0.000000000000000E+000
 0.531719458287368E+000 0.903340824708691E+000 0.000000000000000E+000
 0.750000000000000E+000 0.100000000000000E+001 0.000000000000000E+000
 0.503122841217304E+000 0.947490703764094E+000 0.000000000000000E+000
 0.428509525448068E+000 0.913846660476909E+000 0.000000000000000E+000
 0.625000000000000E+000 0.100000000000000E+001 0.000000000000000E+000
 0.410139362032626E+000 0.877461197108989E+000 0.000000000000000E+000
 0.393550593852374E+000 0.908666538512922E+000 0.000000000000000E+000
 0.455853425536278E+000 0.891464570133054E+000 0.000000000000000E+000
 0.465565809489837E+000 0.931223943045515E+000 0.000000000000000E+000
 0.430803944763131E+000 0.957152995135723E+000 0.000000000000000E+000
 0.361862549463301E+000 0.897277191535820E+000 0.000000000000000E+000
 0.281250000000000E+000 0.768022264880110E+000 0.000000000000000E+000
 0.528016132294562E+000 0.779515446907155E+000 0.000000000000000E+000
 0.582435077211395E+000 0.760961532636893E+000 0.000000000000000E+000
 0.594258447236559E+000 0.718750000000000E+000 0.000000000000000E+000
 0.513210480866922E+000 0.721000388231171E+000 0.000000000000000E+000
 0.625000000000000E+000 0.625000000000000E+000 0.000000000000000E+000
 0.293099715520438E+000 0.681007179427844E+000 0.000000000000000E+000
 0.625000000000000E+000 0.687500000000000E+000 0.000000000000000E+000
 0.375000000000000E+000 0.500000000000000E+000 0.000000000000000E+000
 0.588365877190365E+000 0.682207614843486E+000 0.000000000000000E+000
 0.544806337802789E+000 0.700097114505632E+000 0.000000000000000E+000
 0.473117607324743E+000 0.654334216996401E+000 0.000000000000000E+000
 0.507976816774602E+000 0.678758937084175E+000 0.000000000000000E+000
 0.471770128441152E+000 0.693345422145358E+000 0.000000000000000E+000
 0.540484989053884E+000 0.595274872726202E+000 0.000000000000000E+000
 0.434924684287812E+000 0.717988149163748E+000 0.000000000000000E+000
 0.438762107036035E+000 0.672676424045669E+000 0.000000000000000E+000
 0.514022824851611E+000 0.633041943182225E+000 0.000000000000000E+000
 0.375000000000000E+000 0.687500000000000E+000 0.000000000000000E+000
[...]
CELL_DATA         5036
SCALARS tdens double 1
LOOKUP_TABLE default
 0.357182432394262E-001
 0.387243597431920E-001
 0.367869511397424E-001
 0.367742533076165E-001
 0.723132309992964E-001
 0.703948648594093E-001
 0.721909148292655E-001
 0.717159449641853E-001
 0.915988473100830E-001
 0.959292530249771E-001
 0.960992843591092E-001
 0.945689199109024E-001
 0.601972249042029E-001
 0.582930813713993E-001
 0.582458614728754E-001
 0.588942041954093E-001
 0.618334198909673E-001
 0.614347801790125E-001
 0.590528337083668E-001
 0.606306492662691E-001
 0.321749968914074E-001
 0.313118364119503E-001
 0.313395856811841E-001
 0.314224743261253E-001
 0.185675797877904E+000
 0.181302091412797E+000
 0.191821242299338E+000
 0.186241931768832E+000
 0.131570217461149E+000
 0.134714445025608E+000
 0.135736105642166E+000
 0.134319408520089E+000
 0.150843163823735E+000
 0.149844514943405E+000
 0.156378632976292E+000
 0.152046046904160E+000
 0.773369715687446E-001
 0.747720050404210E-001
 0.748611236137487E-001
 0.754959417247623E-001
 0.672487883284792E-001
 0.685854806164589E-001
 0.676036629230115E-001
 0.676637752334816E-001
 0.697689768013598E-001
 0.700838573261370E-001
 0.693200575936737E-001
 0.697749586423938E-001
 0.103959167084046E+000
 0.962618156242715E-001
 0.939862145240380E-001
 0.988874725585076E-001
 0.158784328573126E+000
 0.139895060765699E+000
 0.155468846374915E+000
 0.152106198700133E+000
 0.136697331021214E+000
 0.137979805218438E+000
 0.134350870196507E+000
 0.136696176364410E+000
 0.214751530931200E+000
 0.204131666076739E+000
 0.220129899304864E+000
 0.213315061007859E+000
 0.159091104105732E+000
 0.161026380494616E+000
 0.159666141944699E+000
 0.160113602882491E+000
 0.825083267043791E-001
 0.916367691623029E-001
 0.878719300865201E-001
 0.866543133749670E-001
 0.496453177813851E-001
 0.490930733061067E-001
 0.471687228188535E-001
 0.485573890629155E-001
 0.129312402985081E+000
 0.133284129527847E+000
 0.130305324921960E+000
 0.130700770294068E+000
 0.676941756746079E-001
 0.685416851329648E-001
 0.667590898432088E-001
 0.680000330156032E-001
 0.637464648004892E-001
 0.628633863758473E-001
 0.634997940529165E-001
 0.633994538844700E-001
 0.107467025288211E+000
 0.105716701839091E+000
 0.104692051190105E+000
 0.105717895635084E+000
 0.652030555783545E-001
 0.641669377038499E-001
 0.641320137258919E-001
 0.642673711242789E-001
 0.715294874324996E-001
 0.708245072882159E-001
 0.692477156123675E-001
 0.706437089703278E-001
 0.118566561204940E+000
 0.119053639230956E+000
 0.117779982530793E+000
 0.118338885559855E+000
 0.676954616114220E-001
 0.720145270953667E-001
 0.697458801362142E-001
 0.698938373080925E-001
 0.932367998852707E-001
 0.872573536356747E-001
 0.887355470217233E-001
 0.893995576655642E-001
 0.105711357662229E+000
 0.102025802030783E+000
 0.103211283160561E+000
 0.103304971701993E+000
 0.654342801271694E-001
 0.642781216331728E-001
 0.649320383099084E-001
 0.650154107351111E-001
 0.539987464691300E-001
 0.536165111208821E-001
 0.561503622024396E-001
 0.546270241706225E-001
 0.788881336496278E-001
 0.793820673685228E-001
 0.840875168733475E-001
 0.811836515826844E-001
 0.614626263272889E-001
 0.558653440029359E-001
 0.577162170265025E-001
 0.583172064900517E-001
 0.814762031798127E-001
 0.809898642599736E-001
 0.906903991577998E-001
 0.862303747256109E-001
 0.497266578860912E-001
 0.449487527721254E-001
 0.441731371334698E-001
 0.462814938619485E-001
 0.624965798068737E-001
 0.631942553982767E-001
 0.624828486993805E-001
 0.627634897608942E-001
 0.425134596601144E-001
 0.422857814186575E-001
 0.412291943433702E-001
 0.419340188527486E-001
 0.642582288449651E-001
 0.637157170081051E-001
 0.640747853136104E-001
 0.640417937387629E-001
 0.589528312016483E-001
 0.542648063067024E-001
 0.606983203930695E-001
 0.582442265295102E-001
 0.627520415564611E-001
 0.637353965118425E-001
 0.635505866171054E-001
 0.633618192054013E-001
 0.656191480092757E-001
 0.641680976652867E-001
 0.647570029114950E-001
 0.648205488119368E-001
 0.101025447959933E+000
 0.974978641167909E-001
 0.109338898611452E+000
 0.102205387445390E+000
 0.598892448710412E-001
 0.591586726812922E-001
 0.595252633369127E-001
 0.595164472424315E-001
 0.640763811860713E-001
 0.652625584139373E-001
 0.645772239759720E-001
 0.648030018487112E-001
 0.618076959428794E-001
 0.606856515972530E-001
 0.612251920500916E-001
 0.612255385322929E-001
 0.629653578071790E-001
 0.644418651944260E-001
 0.648416827851852E-001
 0.636954281423664E-001
 0.154845356157716E+000
 0.151147541382506E+000
 0.156918835407798E+000
 0.154074837891850E+000
 0.663634526182710E-001
 0.683605777199926E-001
 0.657042106501075E-001
 0.665012826882168E-001
 0.724629889603346E-001
 0.675799427215207E-001
 0.725504772201703E-001
 0.712742489083012E-001
 0.634035190430899E-001
 0.649627002984373E-001
 0.642980064106869E-001
 0.641890974502553E-001
 0.669536682348482E-001
 0.658582759042288E-001
 0.699965158339696E-001
 0.676671013574274E-001
 0.754693074627042E-001
 0.732018213180315E-001
 0.715750754364151E-001
 0.735493531108861E-001
 0.776002663455168E-001
 0.721508007799568E-001
 0.765397699916784E-001
 0.748814968931239E-001
 0.638370548260024E-001
 0.646555898527968E-001
 0.651376172954099E-001
 0.640813131343795E-001
 0.661515034425311E-001
 0.658489454125306E-001
 0.651151962088692E-001
 0.657038481691434E-001
 0.670794339156233E-001
 0.690774053405567E-001
 0.692593515508778E-001
 0.683414814591320E-001
 0.624330833067935E-001
 0.628620773175519E-001
 0.635161585778005E-001
 0.631758926658988E-001
 0.882426630088717E-001
 0.781445982199621E-001
 0.874380647989390E-001
 0.862319880786785E-001
 0.922043842794692E-001
 0.912386635109052E-001
 0.990562938299016E-001
 0.947814785362696E-001
 0.669619083438304E-001
 0.684523078303085E-001
 0.667230434839870E-001
 0.672662850514338E-001
 0.999589268904405E-001
 0.963642256389811E-001
 0.100564895218230E+000
 0.992061882691501E-001
 0.710204232988864E-001
 0.707076931466896E-001
 0.748086881371942E-001
 0.724658226853948E-001
 0.706640688617352E-001
 0.644297096588006E-001
 0.655844266134634E-001
 0.654227126333835E-001
 0.677939733841317E-001
 0.664773953041023E-001
 0.686860717082474E-001
 0.680482461343847E-001
 0.612205146150252E-001
 0.626334548696437E-001
 0.621014232676356E-001
 0.619521996816364E-001
 0.656378337335900E-001
 0.665056262544259E-001
 0.706534527899476E-001
 0.673105989172354E-001
 0.108256920462359E+000
 0.103055135389147E+000
 0.952455954384130E-001
 0.102076144574159E+000
 0.104467692725798E+000
 0.119162643342383E+000
 0.118062682361018E+000
 0.114764692993735E+000
 0.658993996150061E-001
 0.674647625992155E-001
 0.804716527153917E-001
 0.693766883581126E-001
 0.113342248829754E+000
 0.117107610575889E+000
 0.118371069461479E+000
 0.116211079347908E+000
 0.969353515010158E-001
 0.101601151805980E+000
 0.101262477440604E+000
 0.988905504180831E-001
 0.108340872229688E+000
 0.935328476359330E-001
 0.992335479968955E-001
 0.999779412362407E-001
 0.814088778880775E-001
 0.868748806541748E-001
 0.883436645377342E-001
 0.846495517895617E-001
 0.840367982844153E-001
 0.806131628130561E-001
 0.870747024463166E-001
 0.841886081899467E-001
 0.706840630102421E-001
 0.731638422928304E-001
 0.756038504815534E-001
 0.730926655383858E-001
 0.947249062512364E-001
 0.949194700420245E-001
 0.987767125311133E-001
 0.957009946030463E-001
 0.759310924860686E-001
 0.736923549053225E-001
 0.707021506056921E-001
 0.730528565856127E-001
 0.766838068587000E-001
 0.764928210314639E-001
 0.725265863585173E-001
 0.748265301372558E-001
 0.815884543067112E-001
 0.758709883887003E-001
 0.782420650173922E-001
 0.779653732448083E-001
 0.872137967547832E-001
 0.904622361420162E-001
 0.921374985278839E-001
 0.894204435503899E-001
 0.103605314458130E+000
 0.107515586069159E+000
 0.106856533148607E+000
 0.106222583760915E+000
 0.716470592767641E-001
 0.688359041897483E-001
 0.689276215169489E-001
 0.699735909012609E-001
 0.881212455516052E-001
 0.920517432420533E-001
 0.920854943121157E-001
 0.903972895612666E-001
 0.597544738653568E-001
 0.607064361709021E-001
 0.595110585711352E-001
 0.601966863348723E-001
 0.618958465854043E-001
 0.614806247382349E-001
 0.607968877380049E-001
 0.610083477023451E-001
 0.635046336672533E-001
 0.620611986168726E-001
 0.622634828690580E-001
 0.628860751272464E-001
 0.673063838690883E-001
 0.672096630597663E-001
 0.649295858841870E-001
 0.667359463835222E-001
 0.918076277699276E-001
 0.914318014479560E-001
 0.878806284221792E-001
 0.904590213913424E-001
 0.592136490570481E-001
 0.589866702060557E-001
 0.575130401323064E-001
 0.582030518811908E-001
 0.704337729982478E-001
 0.720481683226644E-001
 0.696256743919922E-001
 0.700484886731418E-001
 0.680196234172949E-001
 0.658563920788540E-001
 0.653181189291031E-001
 0.666819228572826E-001
 0.648705596304373E-001
 0.658164926707091E-001
 0.672413105515302E-001
 0.655624333975158E-001
 0.109815284715205E+000
 0.963075109833925E-001
 0.965439858847140E-001
 0.100951009577976E+000
 0.781576277704064E-001
 0.909742068144383E-001
 0.778028611978746E-001
 0.818019571179458E-001
 0.713375110046530E-001
 0.666880901132095E-001
 0.685640545773826E-001
 0.687345866702212E-001
 0.644865935042856E-001
 0.669483235474189E-001
 0.649307725801907E-001
 0.650204124630122E-001
 0.596761713250268E-001
 0.618309040351828E-001
 0.581700889468920E-001
 0.595862822093526E-001
 0.643456241995491E-001
 0.633346521754187E-001
 0.623545684235116E-001
 0.636230912983199E-001
 0.616793274423865E-001
 0.626568917041058E-001
 0.605955106015091E-001
 0.612517352692448E-001
 0.628344457467818E-001
 0.605213335246387E-001
 0.627105933878376E-001
 0.622495934352932E-001
 0.817441385463180E-001
 0.731689947120370E-001
 0.659739738591879E-001
 0.733177115415113E-001
 0.933490973614773E-001
 0.807896032266098E-001
 0.904961759574179E-001
 0.880039344662481E-001
 0.635838029414765E-001
 0.609491736394121E-001
 0.631623190521341E-001
 0.625572782786605E-001
 0.617386392960769E-001
 0.631395071244838E-001
 0.650597480865404E-001
 0.630318421484011E-001
 0.601136847853092E-001
 0.588461100053800E-001
 0.595647255993202E-001
 0.596763307349264E-001
 0.591487950707330E-001
 0.600218006022918E-001
 0.595452246996981E-001
 0.594127943222144E-001
 0.606608190536027E-001
 0.617178034094787E-001
 0.607230854253576E-001
 0.610388337483202E-001
 0.622940847725892E-001
 0.612140598596950E-001
 0.632426674484146E-001
 0.622547618052054E-001
 0.616107897526405E-001
 0.620995120310504E-001
 0.621794461808651E-001
 0.619021429516808E-001
 0.602999397325357E-001
 0.602156816591432E-001
 0.598344328549987E-001
 0.600337153919610E-001
 0.604120609957624E-001
 0.605643724869476E-001
 0.608859010466792E-001
 0.606581368256526E-001
 0.617272020035313E-001
 0.612352581885723E-001
 0.608270479188862E-001
 0.612948513472343E-001
 0.554756513162197E-001
 0.586082235394356E-001
 0.579778368203105E-001
 0.571185752316664E-001
 0.587945696836160E-001
 0.594412554351948E-001
 0.599950624268409E-001
 0.594430027866752E-001
 0.119862736400631E+000
 0.121677122326673E+000
 0.118308658029568E+000
 0.119898152725169E+000
 0.102568970726413E+000
 0.106050949094214E+000
 0.103218493445086E+000
 0.103583522199943E+000
 0.114226509248285E+000
 0.115520058842154E+000
 0.111904687348062E+000
 0.114220876279654E+000
 0.122605549333598E+000
 0.119729497066182E+000
 0.120456390532677E+000
 0.120985523402760E+000
 0.104790854020086E+000
 0.108372944250666E+000
 0.108110711974820E+000
 0.107038961794502E+000
 0.871502710503111E-001
 0.867013365498215E-001
 0.904457105600964E-001
 0.880060371725497E-001
 0.844542741335801E-001
 0.805603726108755E-001
 0.842106031636293E-001
 0.832725904483481E-001
 0.989480117773447E-001
 0.942190101920527E-001
 0.929525045820978E-001
 0.960041500448753E-001
 0.110937942332066E+000
 0.114533999087249E+000
 0.110386356400049E+000
 0.112201306351990E+000
 0.104712907810001E+000
 0.107340350643729E+000
 0.108400884148777E+000
 0.106769549099094E+000
 0.102761247420401E+000
 0.103465921070818E+000
 0.106984579495460E+000
 0.104193910550009E+000
 0.113280248839307E+000
 0.109575473877161E+000
 0.110039573499888E+000
 0.110607449128377E+000
 0.120481769989330E+000
 0.124868403906748E+000
 0.125144196626712E+000
 0.123349763631981E+000
 0.109307818722592E+000
 0.102464095809291E+000
 0.103731347319023E+000
 0.105214746303829E+000
 0.114280154510782E+000
 0.111300639002024E+000
 0.114938335496432E+000
 0.113778286635708E+000
 0.991072258050222E-001
 0.960457728484571E-001
 0.100737870161133E+000
 0.982500831701193E-001
 0.808875154014736E-001
 0.779418967776820E-001
 0.753994238880542E-001
 0.785192200295412E-001
 0.100636946405373E+000
 0.961140761758593E-001
 0.997802514382951E-001
 0.989880951463167E-001
 0.826452034052750E-001
 0.766951128384546E-001
 0.788102276782213E-001
 0.792727769436238E-001
 0.940887602083087E-001
 0.973481951851123E-001
 0.939331243269904E-001
 0.950977075866166E-001
 0.804639549103892E-001
 0.834756180245046E-001
 0.841803282920742E-001
 0.822266482453355E-001
 0.905067190441050E-001
 0.861939834502042E-001
 0.858919316439202E-001
 0.877844250068345E-001
 0.120476214228111E+000
 0.121910849794258E+000
 0.119908355373898E+000
 0.121139355272358E+000
 0.128510520892478E+000
 0.131775016345659E+000
 0.132761188759123E+000
 0.130463951984088E+000
 0.120541877549858E+000
 0.118331986369450E+000
 0.121930892396846E+000
 0.120263253425982E+000
 0.117887040495273E+000
 0.116649062679646E+000
 0.119703188030873E+000
 0.117219243598086E+000
 0.122196138004542E+000
 0.119218968148981E+000
 0.119605203873452E+000
 0.120856103281286E+000
 0.100247746427783E+000
 0.113280932735387E+000
 0.111355831679033E+000
 0.107549681196708E+000
 0.120574317346058E+000
 0.120252171014885E+000
 0.122151189594537E+000
 0.120656230262662E+000
 0.112022734178955E+000
 0.115508240515354E+000
 0.115403064561626E+000
 0.114037242348000E+000
 0.107514007609120E+000
 0.114132764506774E+000
 0.110156831950842E+000
 0.110929367147618E+000
 0.119410809583587E+000
 0.121128104037838E+000
 0.116295353782071E+000
 0.121597324743923E+000
 0.119197035384193E+000
 0.117828147989521E+000
 0.117908082596311E+000
 0.118290179251547E+000
 0.106227285886932E+000
 0.107048863430720E+000
 0.106504486219868E+000
 0.106635937151245E+000
 0.113513709255341E+000
 0.117676663322070E+000
 0.116200218798391E+000
 0.116018892052817E+000
 0.118742412983904E+000
 0.118144435402259E+000
 0.118826169598427E+000
 0.118645351571318E+000
 0.117701133495007E+000
 0.119528731010431E+000
 0.119365940778317E+000
 0.118648521230238E+000
 0.121405649552431E+000
 0.122585668077721E+000
 0.125132003230151E+000
 0.123318641200976E+000
 0.117680541153099E+000
 0.120740099771896E+000
 0.119778580970267E+000
 0.119201077665775E+000
 0.123670737802494E+000
 0.122020483315238E+000
 0.125557046844859E+000
 0.123452159793265E+000
 0.127915707890805E+000
 0.124757324514837E+000
 0.127034797447448E+000
 0.126833433661398E+000
 0.125278317830111E+000
 0.128372884170781E+000
 0.128134351373351E+000
 0.127464443162541E+000
 0.124675732482498E+000
 0.124432109035492E+000
 0.127507933377277E+000
 0.125225221510821E+000
 0.117076645386290E+000
 0.118807805520948E+000
 0.117060215563451E+000
 0.117482230836091E+000
 0.126667176064126E+000
 0.126791127722423E+000
 0.124033324679389E+000
 0.125648813134305E+000
 0.134948383222848E+000
 0.130721927856670E+000
 0.136114652269791E+000
 0.133441309407835E+000
 0.135878080493262E+000
 0.131856009313715E+000
 0.136102781650017E+000
 0.134601971191337E+000
 0.124766330866865E+000
 0.122127502491044E+000
 0.122014355589336E+000
 0.122644703500413E+000
 0.119273508525491E+000
 0.119167063341377E+000
 0.117769832639653E+000
 0.119027776639564E+000
 0.122621607404126E+000
 0.120771724434966E+000
 0.122623730587528E+000
 0.122392483384974E+000
 0.173252925170397E+000
 0.151923911444382E+000
 0.161047938831154E+000
 0.164000827578528E+000
 0.189169183618134E+000
 0.178503990451302E+000
 0.182129038763242E+000
 0.183019919942940E+000
 0.143284952802779E+000
 0.148148220372733E+000
 0.150624334305361E+000
 0.148005590240159E+000
 0.145387383425030E+000
 0.139752094945207E+000
 0.141814524355294E+000
 0.142800286949304E+000
 0.125906755707645E+000
 0.130512286885382E+000
 0.120341264077900E+000
 0.126053970541571E+000
 0.148629422712087E+000
 0.140778714420272E+000
 0.141595876638447E+000
 0.144075714374209E+000
 0.132591630715579E+000
 0.128583127116889E+000
 0.128614942337017E+000
 0.130455707540216E+000
 0.137211689273122E+000
 0.140135689924684E+000
 0.138367333197279E+000
 0.137815779825625E+000
 0.115352398598643E+000
 0.117848092062938E+000
 0.114391906346485E+000
 0.115930120815946E+000
 0.125181463621504E+000
 0.127217368204449E+000
 0.128287558839008E+000
 0.127332969974197E+000
 0.129367486806958E+000
 0.130744601678035E+000
 0.134821434610275E+000
 0.131949781733126E+000
 0.142642374442165E+000
 0.137529699083916E+000
 0.139062278481924E+000
 0.139691841263670E+000
 0.143963306748351E+000
 0.162378058712724E+000
 0.140604982604947E+000
 0.149251963315390E+000
 0.119719458144383E+000
 0.122492112918089E+000
 0.121772635917435E+000
 0.121450137278429E+000
 0.962828042443493E-001
 0.934479202410612E-001
 0.896659216701037E-001
 0.929645964772552E-001
 0.153015553764870E+000
 0.159570937637443E+000
 0.156976172601144E+000
 0.156913615978660E+000
 0.147530172311161E+000
 0.151566647802901E+000
 0.149577438727173E+000
 0.150365079828375E+000
 0.124938999339790E+000
 0.127913993190333E+000
 0.126402209718763E+000
 0.125895373559935E+000
 0.141081923371949E+000
 0.137988659844175E+000
 0.143182517092772E+000
 0.140652033136902E+000
 0.141675856865011E+000
 0.138295749706747E+000
 0.138371213057543E+000
 0.139845481048619E+000
 0.147739964671304E+000
 0.143429500738444E+000
 0.145737592299331E+000
 0.145738951177243E+000
 0.144251578830370E+000
 0.148448108797480E+000
 0.148011453962647E+000
 0.146575958919986E+000
 0.157751862893912E+000
 0.159936922112386E+000
 0.155042198927796E+000
 0.156967044448150E+000
 0.172894840298575E+000
 0.167921999632759E+000
 0.177555363121571E+000
 0.172194948329096E+000
 0.152799534129548E+000
 0.154907016688985E+000
 0.159460605109373E+000
 0.155347726328928E+000
 0.150603466037890E+000
 0.151203032828298E+000
 0.154991649462829E+000
 0.151979862592616E+000
 0.161870136368275E+000
 0.169535098424693E+000
 0.164370305453761E+000
 0.164810494904686E+000
 0.167599072560752E+000
 0.173390865458150E+000
 0.177437872300768E+000
 0.173032814117490E+000
 0.156024526722485E+000
 0.168139298477265E+000
 0.166310407916236E+000
 0.167936340502944E+000
 0.140639004854981E+000
 0.146298137127240E+000
 0.144004718578554E+000
 0.143113899670880E+000
 0.232929463153767E+000
 0.225157423736004E+000
 0.219017069640209E+000
 0.227724917179315E+000
 0.160679718326095E+000
 0.163756122820959E+000
 0.168193823507139E+000
 0.164377039192497E+000
 0.136568982483520E+000
 0.129780999384054E+000
 0.133925328904834E+000
 0.133175095440255E+000
 0.154790797378614E+000
 0.152404460751739E+000
 0.150626019642510E+000
 0.153211589577065E+000
 0.150414513477355E+000
 0.152892535947462E+000
 0.156300271039865E+000
 0.152971680320647E+000
 0.150502952546936E+000
 0.148043164934505E+000
 0.146213656988084E+000
 0.147757148480716E+000
 0.146067745310205E+000
 0.148524876439250E+000
 0.150414048325628E+000
 0.148660018108515E+000
 0.136864921268670E+000
 0.141253224234132E+000
 0.139508222780999E+000
 0.138804285375671E+000
 0.140250214877010E+000
 0.138984224884689E+000
 0.142423600621844E+000
 0.140249448981767E+000
 0.134818903349551E+000
 0.130692372525758E+000
 0.130780675569237E+000
 0.131954287233506E+000
 0.127419123919015E+000
 0.129030331652970E+000
 0.130554104704175E+000
 0.129305855660252E+000
 0.139321784721859E+000
 0.140932328119734E+000
 0.136656416534754E+000
 0.139225053052628E+000
 0.119848619594111E+000
 0.116965046555234E+000
 0.119918982815460E+000
 0.119155289733131E+000
 0.141639646752815E+000
 0.143602119498301E+000