# vtk DataFile Version 3.0
Unstructured Grid
ASCII
DATASET UNSTRUCTURED_GRID
FIELD FieldData 1
TIME 1 1 float
  0.213738E+03
POINTS         2588 double
 0.000000000000000E+000 0.000000000000000E+000 0.000000000000000E+000
 0.100000000000000E+001 0.000000000000000E+000 0.000000000000000E+000
 0.100000000000000E+001 0.100000000000000E+001 0.000000000000000E+000
 0.000000000000000E+000 0.100000000000000E+001 0.000000000000000E+000
 0.125000000000000E+000 0.250000000000000E+000 0.000000000000000E+000
 0.375000000000000E+000 0.250000000000000E+000 0.000000000000000E+000
 0.375000000000000E+000 0.750000000000000E+000 0.000000000000000E+000
 0.125000000000000E+000 0.750000000000000E+000 0.000000000000000E+000
 0.625000000000000E+000 0.250000000000000E+000 0.000000000000000E+000
 0.875000000000000E+000 0.250000000000000E+000 0.000000000000000E+000
 0.875000000000000E+000 0.750000000000000E+000 0.000000000000000E+000
 0.625000000000000E+000 0.750000000000000E+000 0.000000000000000E+000
 0.100000000000000E+001 0.500000000000000E+000 0.000000000000000E+000
 0.000000000000000E+000 0.500000000000000E+000 0.000000000000000E+000
 0.500000000000000E+000 0.000000000000000E+000 0.000000000000000E+000
 0.125000000000000E+000 0.500000000000000E+000 0.000000000000000E+000
 0.000000000000000E+000 0.750000000000000E+000 0.000000000000000E+000
 0.000000000000000E+000 0.250000000000000E+000 0.000000000000000E+000
 0.000000000000000E+000 0.875000000000000E+000 0.000000000000000E+000
 0.000000000000000E+000 0.125000000000000E+000 0.000000000000000E+000
 0.000000000000000E+000 0.812500000000000E+000 0.000000000000000E+000
 0.625000000000000E-001 0.812500000000000E+000 0.000000000000000E+000
 0.125000000000000E+000 0.375000000000000E+000 0.000000000000000E+000
 0.000000000000000E+000 0.375000000000000E+000 0.000000000000000E+000
 0.125000000000000E+000 0.625000000000000E+000 0.000000000000000E+000
 0.312500000000000E-001 0.781250000000000E+000 0.000000000000000E+000
 0.000000000000000E+000 0.625000000000000E+000 0.000000000000000E+000
 0.781250000000000E-001 0.765625000000000E+000 0.000000000000000E+000
 0.364583333333333E-001 0.744791666666667E+000 0.000000000000000E+000
 0.000000000000000E+000 0.687500000000000E+000 0.000000000000000E+000
 0.312500000000000E-001 0.843750000000000E+000 0.000000000000000E+000
 0.500000000000000E+000 0.100000000000000E+001 0.000000000000000E+000
 0.117915518486872E+000 0.805415518486872E+000 0.000000000000000E+000
 0.531250000000000E-001 0.896875000000000E+000 0.000000000000000E+000
 0.128125000000000E+000 0.862500000000000E+000 0.000000000000000E+000
 0.852352799227800E-001 0.850726351351351E+000 0.000000000000000E+000
 0.250000000000000E+000 0.750000000000000E+000 0.000000000000000E+000
 0.000000000000000E+000 0.937500000000000E+000 0.000000000000000E+000
 0.250000000000000E+000 0.100000000000000E+001 0.000000000000000E+000
 0.125000000000000E+000 0.100000000000000E+001 0.000000000000000E+000
 0.559955578663221E-001 0.864626829113867E+000 0.000000000000000E+000
 0.201656717908302E+000 0.819893736067327E+000 0.000000000000000E+000
 0.181985294117647E-001 0.906250000000000E+000 0.000000000000000E+000
 0.157158578892515E+000 0.827852167423944E+000 0.000000000000000E+000
 0.173219498992632E+000 0.789273026175030E+000 0.000000000000000E+000
 0.190370748034901E+000 0.885171153579592E+000 0.000000000000000E+000
 0.163362285670037E+000 0.862539079232243E+000 0.000000000000000E+000
 0.145689809422689E+000 0.911060496538305E+000 0.000000000000000E+000
 0.260169562085505E+000 0.921822264266383E+000 0.000000000000000E+000
 0.999952720236157E-001 0.900131729869707E+000 0.000000000000000E+000
 0.181336648989602E+000 0.921080529637299E+000 0.000000000000000E+000
 0.187500000000000E+000 0.100000000000000E+001 0.000000000000000E+000
 0.625000000000000E-001 0.100000000000000E+001 0.000000000000000E+000
 0.391044682108720E-001 0.939348618511729E+000 0.000000000000000E+000
 0.987901813178879E-001 0.953497897705852E+000 0.000000000000000E+000
 0.127430470763290E+000 0.938015442955272E+000 0.000000000000000E+000
 0.735147503821561E-001 0.927156548383149E+000 0.000000000000000E+000
 0.187500000000000E+000 0.750000000000000E+000 0.000000000000000E+000
 0.937500000000000E-001 0.986976003387646E+000 0.000000000000000E+000
 0.647068558612996E-001 0.964310770745732E+000 0.000000000000000E+000
 0.287348941263244E-001 0.975594752089430E+000 0.000000000000000E+000
 0.140548246895551E+000 0.780148342865875E+000 0.000000000000000E+000
 0.625000000000000E-001 0.656250000000000E+000 0.000000000000000E+000
 0.885416666666667E-001 0.718750000000000E+000 0.000000000000000E+000
 0.125000000000000E+000 0.687500000000000E+000 0.000000000000000E+000
 0.418778153153153E-001 0.701096693284193E+000 0.000000000000000E+000
 0.130000591648319E-001 0.718750000000000E+000 0.000000000000000E+000
 0.886787280701754E-001 0.682017543859649E+000 0.000000000000000E+000
 0.324539302647226E+000 0.874753539998500E+000 0.000000000000000E+000
 0.220842706957930E+000 0.911928394103011E+000 0.000000000000000E+000
 0.255656705174793E+000 0.856653769033302E+000 0.000000000000000E+000
 0.230240640268531E+000 0.957679342037283E+000 0.000000000000000E+000
 0.247273788001812E+000 0.889974781313083E+000 0.000000000000000E+000
 0.287822583654814E+000 0.892090285129540E+000 0.000000000000000E+000
 0.375000000000000E+000 0.100000000000000E+001 0.000000000000000E+000
 0.312500000000000E+000 0.100000000000000E+001 0.000000000000000E+000
 0.296339471848887E+000 0.927737349884604E+000 0.000000000000000E+000
 0.272754945277513E+000 0.963602684427479E+000 0.000000000000000E+000
 0.218750000000000E+000 0.100000000000000E+001 0.000000000000000E+000
 0.156250000000000E+000 0.970185411869689E+000 0.000000000000000E+000
 0.193067439035452E+000 0.962879965079150E+000 0.000000000000000E+000
 0.366022419631980E+000 0.930828672570042E+000 0.000000000000000E+000
 0.331917636626289E+000 0.912676918057824E+000 0.000000000000000E+000
 0.218750000000000E+000 0.780050991479902E+000 0.000000000000000E+000
 0.270314960374965E+000 0.802399429390985E+000 0.000000000000000E+000
 0.239019213447470E+000 0.823051378525603E+000 0.000000000000000E+000
 0.312500000000000E+000 0.750000000000000E+000 0.000000000000000E+000
 0.297176692881550E+000 0.838764170920897E+000 0.000000000000000E+000
 0.316491084060399E+000 0.796393690767677E+000 0.000000000000000E+000
 0.343750000000000E+000 0.770680188507291E+000 0.000000000000000E+000
 0.409908719410776E+000 0.836702006091634E+000 0.000000000000000E+000
 0.362591033297072E+000 0.817958948082628E+000 0.000000000000000E+000
 0.401086171766563E+000 0.789875587437421E+000 0.000000000000000E+000
 0.371341896832358E+000 0.864966336467817E+000 0.000000000000000E+000
 0.333452116450771E+000 0.839580614538559E+000 0.000000000000000E+000
 0.625000000000000E+000 0.500000000000000E+000 0.000000000000000E+000
 0.497245004128187E+000 0.796002674320860E+000 0.000000000000000E+000
 0.375000000000000E+000 0.625000000000000E+000 0.000000000000000E+000
 0.448383797292392E+000 0.805208595628784E+000 0.000000000000000E+000
 0.410140101146819E+000 0.755482168792868E+000 0.000000000000000E+000
 0.466643384891561E+000 0.767852445997818E+000 0.000000000000000E+000
 0.476967665188550E+000 0.732032311892081E+000 0.000000000000000E+000
 0.540753556856103E+000 0.747012385328872E+000 0.000000000000000E+000
 0.490851671729155E+000 0.896339978179292E+000 0.000000000000000E+000
 0.457989751325779E+000 0.856193010026991E+000 0.000000000000000E+000
 0.477617377726983E+000 0.826097842173926E+000 0.000000000000000E+000
 0.546397010943533E+000 0.849506899903764E+000 0.000000000000000E+000
 0.514994092174850E+000 0.829026377565149E+000 0.000000000000000E+000
 0.557956128164421E+000 0.797467818442289E+000 0.000000000000000E+000
 0.513053884697208E+000 0.866316721845202E+000 0.000000000000000E+000
 0.531719458287368E+000 0.903340824708691E+000 0.000000000000000E+000
 0.750000000000000E+000 0.100000000000000E+001 0.000000000000000E+000
 0.503122841217304E+000 0.947490703764094E+000 0.000000000000000E+000
 0.428509525448068E+000 0.913846660476909E+000 0.000000000000000E+000
 0.625000000000000E+000 0.100000000000000E+001 0.000000000000000E+000
 0.410139362032626E+000 0.877461197108989E+000 0.000000000000000E+000
 0.393550593852374E+000 0.908666538512922E+000 0.000000000000000E+000
 0.455853425536278E+000 0.891464570133054E+000 0.000000000000000E+000
 0.465565809489837E+000 0.931223943045515E+000 0.000000000000000E+000
 0.430803944763131E+000 0.957152995135723E+000 0.000000000000000E+000
 0.361862549463301E+000 0.897277191535820E+000 0.000000000000000E+000
 0.281250000000000E+000 0.768022264880110E+000 0.000000000000000E+000
 0.528016132294562E+000 0.779515446907155E+000 0.000000000000000E+000
 0.582435077211395E+000 0.760961532636893E+000 0.000000000000000E+000
 0.594258447236559E+000 0.718750000000000E+000 0.000000000000000E+000
 0.513210480866922E+000 0.721000388231171E+000 0.000000000000000E+000
 0.625000000000000E+000 0.625000000000000E+000 0.000000000000000E+000
 0.293099715520438E+000 0.681007179427844E+000 0.000000000000000E+000
 0.625000000000000E+000 0.687500000000000E+000 0.000000000000000E+000
 0.375000000000000E+000 0.500000000000000E+000 0.000000000000000E+000
 0.588365877190365E+000 0.682207614843486E+000 0.000000000000000E+000
 0.544806337802789E+000 0.700097114505632E+000 0.000000000000000E+000
 0.473117607324743E+000 0.654334216996401E+000 0.000000000000000E+000
 0.507976816774602E+000 0.678758937084175E+000 0.000000000000000E+000
 0.471770128441152E+000 0.693345422145358E+000 0.000000000000000E+000
 0.540484989053884E+000 0.595274872726202E+000 0.000000000000000E+000
 0.434924684287812E+000 0.717988149163748E+000 0.000000000000000E+000
 0.438762107036035E+000 0.672676424045669E+000 0.000000000000000E+000
 0.514022824851611E+000 0.633041943182225E+000 0.000000000000000E+000
 0.375000000000000E+000 0.687500000000000E+000 0.000000000000000E+000
[...]
CELL_DATA         5036
SCALARS tdens double 1
LOOKUP_TABLE default
 0.137097513427423E-011
 0.101651180802551E-010
 0.219090074556028E-011
 0.172384272257179E-011
 0.142869817375338E-005
 0.301362829388111E-006
 0.383766986429548E-006
 0.348625828949868E-006
 0.567519749498317E-001
 0.892292688949416E-001
 0.976494444811957E-001
 0.941842014970316E-001
 0.100000000000000E-011
 0.100000000000000E-011
 0.100000000000000E-011
 0.100000000000000E-011
 0.168408690357129E-011
 0.155443230315353E-011
 0.100000000000000E-011
 0.126480892134353E-011
 0.100000000000000E-011
 0.100000000000000E-011
 0.100000000000000E-011
 0.100000000000000E-011
 0.926514971928529E-002
 0.695705485883987E-002
 0.517149177687218E-001
 0.822185370542886E-002
 0.115950145208829E+000
 0.145185132260702E+000
 0.106661720081439E+000
 0.114899146740290E+000
 0.153126046562983E+000
 0.188627243756028E+000
 0.193381720773823E+000
 0.191460821885626E+000
 0.454038004993729E-009
 0.347988048157473E-009
 0.222305662167909E-009
 0.374259608794913E-009
 0.278088487678072E-007
 0.800408078822042E-007
 0.743461225641938E-007
 0.785249083305771E-007
 0.585790965613713E-005
 0.163670900174139E-004
 0.113703843896282E-004
 0.109297149465129E-004
 0.338037199682146E-007
 0.863860762380385E-008
 0.981933390999377E-009
 0.742062767328561E-008
 0.129516529397177E+000
 0.762074905940913E-001
 0.995996253289591E-001
 0.862619525890901E-001
 0.468698726007702E-002
 0.850866434509112E-003
 0.153517569315929E-002
 0.136303713144409E-002
 0.132699840947408E+000
 0.143547927741423E+000
 0.200302457819886E+000
 0.141342509278159E+000
 0.225138268393162E-008
 0.741463628927251E-008
 0.189930045757573E-008
 0.222028998162423E-008
 0.385512366682390E-006
 0.772911848195167E-002
 0.410448692268715E-003
 0.484754256206538E-003
 0.100000000000000E-011
 0.100000000000000E-011
 0.100000000000000E-011
 0.100000000000000E-011
 0.141682975048062E+000
 0.144965857201166E+000
 0.121068238210562E+000
 0.143866272982237E+000
 0.407853130913300E-004
 0.153888498391754E-003
 0.191221828187419E-004
 0.382227391403759E-004
 0.100000000000000E-011
 0.100000000000000E-011
 0.100000000000000E-011
 0.100000000000000E-011
 0.148003425761631E+000
 0.146011596220891E+000
 0.136178365100485E+000
 0.146185201125974E+000
 0.100000000000000E-011
 0.100000000000000E-011
 0.100000000000000E-011
 0.100000000000000E-011
 0.142476806121676E+000
 0.155012001051894E+000
 0.155806179649223E+000
 0.155866855886811E+000
 0.107579856508719E+000
 0.118063634148731E+000
 0.784869178575252E-001
 0.110525557139587E+000
 0.100000000000000E-011
 0.115042947009707E-011
 0.100000000000000E-011
 0.100000000000000E-011
 0.576397104257080E-003
 0.559502784438556E-004
 0.452049940722757E-003
 0.486030521406762E-003
 0.231061005114564E-001
 0.490162088305466E-002
 0.250907760283730E-001
 0.232031707851813E-001
 0.102451448497047E-006
 0.246524291780968E-007
 0.355725536526714E-007
 0.334976799628735E-007
 0.561026931144961E-009
 0.283129712949830E-009
 0.117189575099012E-008
 0.538787438300506E-009
 0.153977321168759E-007
 0.528940932161160E-007
 0.650433822266401E-006
 0.365647238995542E-007
 0.259970460432603E-011
 0.100000000000000E-011
 0.100000000000000E-011
 0.100000000000000E-011
 0.439456269206633E-006
 0.492877780175292E-002
 0.701218827337494E-002
 0.730749604003009E-002
 0.100000000000000E-011
 0.100000000000000E-011
 0.100000000000000E-011
 0.100000000000000E-011
 0.100000000000000E-011
 0.100000000000000E-011
 0.100000000000000E-011
 0.100000000000000E-011
 0.523279190730755E-011
 0.138525305440437E-011
 0.120450543434212E-011
 0.165137540671038E-011
 0.100000000000000E-011
 0.100000000000000E-011
 0.100000000000000E-011
 0.100000000000000E-011
 0.100000000000000E-011
 0.100000000000000E-011
 0.100000000000000E-011
 0.100000000000000E-011
 0.100000000000000E-011
 0.100000000000000E-011
 0.100000000000000E-011
 0.100000000000000E-011
 0.100000000000000E-011
 0.100000000000000E-011
 0.100000000000000E-011
 0.100000000000000E-011
 0.327888270525735E-001
 0.500469771554229E-001
 0.588159444429511E-001
 0.524822023877755E-001
 0.100000000000000E-011
 0.100000000000000E-011
 0.100000000000000E-011
 0.100000000000000E-011
 0.100000000000000E-011
 0.100000000000000E-011
 0.100000000000000E-011
 0.100000000000000E-011
 0.100000000000000E-011
 0.100000000000000E-011
 0.100000000000000E-011
 0.100000000000000E-011
 0.100000000000000E-011
 0.100000000000000E-011
 0.100000000000000E-011
 0.100000000000000E-011
 0.128903937812484E-004
 0.301384154715550E-004
 0.328760190680055E-004
 0.340692230678776E-004
 0.100000000000000E-011
 0.110646897941056E-011
 0.100000000000000E-011
 0.100000000000000E-011
 0.245647532013790E-011
 0.256799539713693E-002
 0.103442229671013E-001
 0.529097444479086E-002
 0.100000000000000E-011
 0.100000000000000E-011
 0.100000000000000E-011
 0.100000000000000E-011
 0.100000000000000E-011
 0.100000000000000E-011
 0.100000000000000E-011
 0.100000000000000E-011
 0.365421404529706E-009
 0.280202789875710E-010
 0.177547513701868E-010
 0.258770150714564E-010
 0.493085981602781E-009
 0.794101886447808E-011
 0.372690093085931E-009
 0.376472937346795E-009
 0.100000000000000E-011
 0.100000000000000E-011
 0.100000000000000E-011
 0.100000000000000E-011
 0.100000000000000E-011
 0.100000000000000E-011
 0.100000000000000E-011
 0.100000000000000E-011
 0.100000000000000E-011
 0.100000000000000E-011
 0.149446213592833E-011
 0.100000000000000E-011
 0.100000000000000E-011
 0.100000000000000E-011
 0.100000000000000E-011
 0.100000000000000E-011
 0.515540655709488E-001
 0.338272894391016E-001
 0.639383292168278E-001
 0.398978229095770E-001
 0.864834193417582E-004
 0.241777861681522E-003
 0.150507722340706E-002
 0.261217315664247E-003
 0.100000000000000E-011
 0.100000000000000E-011
 0.100000000000000E-011
 0.100000000000000E-011
 0.191393375752760E-004
 0.146264986812692E-004
 0.967790474645300E-004
 0.155925205629606E-004
 0.140634116047516E-010
 0.755133301067783E-011
 0.340225321286907E-009
 0.166481195374524E-010
 0.608668770860137E-002
 0.219306181960852E-001
 0.769330513412959E-003
 0.723080474762832E-002
 0.100000000000000E-011
 0.100000000000000E-011
 0.150598802143753E-011
 0.100000000000000E-011
 0.100000000000000E-011
 0.100000000000000E-011
 0.100000000000000E-011
 0.100000000000000E-011
 0.100000000000000E-011
 0.100000000000000E-011
 0.100000000000000E-011
 0.100000000000000E-011
 0.331332680390378E-001
 0.757358861110552E-002
 0.232672277461144E-002
 0.681248903923788E-002
 0.880685173114016E-001
 0.116241433488792E+000
 0.108771491377026E+000
 0.100083154400063E+000
 0.148027427283222E-001
 0.294500731775576E-001
 0.490022258431208E-001
 0.384055203072973E-001
 0.343361762450402E-001
 0.678428410643626E-001
 0.920246087338437E-001
 0.669366068119065E-001
 0.205628267697519E-004
 0.957058852204140E-003
 0.227290996515479E-003
 0.286346464116407E-003
 0.295204064780563E-001
 0.212958514075397E-002
 0.148171117110816E-001
 0.172329665482690E-001
 0.127012476784440E-007
 0.383770115195504E-006
 0.405395455260322E-006
 0.356001516725518E-006
 0.440596582040250E-007
 0.145450466387205E-007
 0.403924462311736E-006
 0.440891605391810E-007
 0.100000000000000E-011
 0.386522461211328E-011
 0.447340197004284E-011
 0.364849969007366E-011
 0.559619364067824E-007
 0.122530975822615E-005
 0.191617145299751E-005
 0.107919023081076E-005
 0.254936512065504E-011
 0.100000000000000E-011
 0.100000000000000E-011
 0.100000000000000E-011
 0.363988369252594E-009
 0.391102997384184E-009
 0.191170310723559E-010
 0.334385799862748E-009
 0.341626480333935E-008
 0.607056279440491E-010
 0.146974447811143E-008
 0.153568847549630E-008
 0.559197818525155E-007
 0.441056127824379E-006
 0.338460565244334E-006
 0.426927187616313E-006
 0.262853770149933E-004
 0.659319907303075E-004
 0.286747609524165E-004
 0.301196885994269E-004
 0.100000000000000E-011
 0.100000000000000E-011
 0.100000000000000E-011
 0.100000000000000E-011
 0.670751282396127E-008
 0.263943844820792E-006
 0.251312780970837E-007
 0.262651832468132E-007
 0.100000000000000E-011
 0.100000000000000E-011
 0.100000000000000E-011
 0.100000000000000E-011
 0.100000000000000E-011
 0.100000000000000E-011
 0.100000000000000E-011
 0.100000000000000E-011
 0.100000000000000E-011
 0.100000000000000E-011
 0.100000000000000E-011
 0.100000000000000E-011
 0.100000000000000E-011
 0.100000000000000E-011
 0.100000000000000E-011
 0.100000000000000E-011
 0.472901275766344E-008
 0.268600722737202E-009
 0.953279561807792E-009
 0.859680844414938E-009
 0.100000000000000E-011
 0.100000000000000E-011
 0.100000000000000E-011
 0.100000000000000E-011
 0.376275282384737E-011
 0.441916570077096E-011
 0.100000000000000E-011
 0.305589281397167E-011
 0.117184858157584E-011
 0.100000000000000E-011
 0.100000000000000E-011
 0.100000000000000E-011
 0.100000000000000E-011
 0.100000000000000E-011
 0.100000000000000E-011
 0.100000000000000E-011
 0.869050573566931E-001
 0.594111792808838E-001
 0.697377787493512E-001
 0.788714853783985E-001
 0.154319051132333E-001
 0.231728222823197E-001
 0.768274287277798E-002
 0.159628174446945E-001
 0.100000000000000E-011
 0.100000000000000E-011
 0.100000000000000E-011
 0.100000000000000E-011
 0.100000000000000E-011
 0.100000000000000E-011
 0.100000000000000E-011
 0.100000000000000E-011
 0.100000000000000E-011
 0.100000000000000E-011
 0.100000000000000E-011
 0.100000000000000E-011
 0.100000000000000E-011
 0.100000000000000E-011
 0.100000000000000E-011
 0.100000000000000E-011
 0.100000000000000E-011
 0.100000000000000E-011
 0.100000000000000E-011
 0.100000000000000E-011
 0.100000000000000E-011
 0.100000000000000E-011
 0.100000000000000E-011
 0.100000000000000E-011
 0.490809235642733E-001
 0.197621765309212E-001
 0.133260945121472E-001
 0.320669355654099E-001
 0.286615627281880E-001
 0.251924498049962E-001
 0.420603113658378E-001
 0.342108453973803E-001
 0.100000000000000E-011
 0.100000000000000E-011
 0.100000000000000E-011
 0.100000000000000E-011
 0.100000000000000E-011
 0.244454522679386E-011
 0.901806642910932E-011
 0.369487405185110E-011
 0.100000000000000E-011
 0.100000000000000E-011
 0.100000000000000E-011
 0.100000000000000E-011
 0.100000000000000E-011
 0.100000000000000E-011
 0.100000000000000E-011
 0.100000000000000E-011
 0.100000000000000E-011
 0.100000000000000E-011
 0.100000000000000E-011
 0.100000000000000E-011
 0.100000000000000E-011
 0.100000000000000E-011
 0.100000000000000E-011
 0.100000000000000E-011
 0.100000000000000E-011
 0.100000000000000E-011
 0.100000000000000E-011
 0.100000000000000E-011
 0.100000000000000E-011
 0.100000000000000E-011
 0.100000000000000E-011
 0.100000000000000E-011
 0.100000000000000E-011
 0.100000000000000E-011
 0.100000000000000E-011
 0.100000000000000E-011
 0.100000000000000E-011
 0.100000000000000E-011
 0.100000000000000E-011
 0.100000000000000E-011
 0.100000000000000E-011
 0.100000000000000E-011
 0.100000000000000E-011
 0.100000000000000E-011
 0.100000000000000E-011
 0.100000000000000E-011
 0.100000000000000E-011
 0.100000000000000E-011
 0.474426321886577E-001
 0.282160745782351E-001
 0.139106411163831E-001
 0.272905244490655E-001
 0.368718473502040E-005
 0.604771186202704E-005
 0.349527329597341E-006
 0.381283324027444E-005
 0.314268027144072E-004
 0.329041234904914E-005
 0.305528741256587E-005
 0.342405094324326E-005
 0.110715859727591E+000
 0.107824964786719E+000
 0.894703299800088E-001
 0.110897246262577E+000
 0.542670522145001E-003
 0.456902729454656E-002
 0.957433218333484E-003
 0.787175024940216E-003
 0.234459499907580E-010
 0.197121067232581E-009
 0.742532763995526E-010
 0.692913573721407E-010
 0.191675465656434E-010
 0.264062441351088E-010
 0.219950501426414E-009
 0.243944376654773E-010
 0.105822148758233E-002
 0.256220279452529E-004
 0.547780965856940E-004
 0.417121926021619E-004
 0.120655705855649E-001
 0.275914670550099E-001
 0.359750261851826E-002
 0.112964434109258E-001
 0.396262690473473E-006
 0.638730390470680E-005
 0.118580985914203E-005
 0.110821048287769E-005
 0.275559759396521E-004
 0.834823026596226E-004
 0.608071473297966E-004
 0.742407078551441E-004
 0.546679378371194E-004
 0.267995839954107E-004
 0.608483625178631E-004
 0.583513805012295E-004
 0.978213790029935E-006
 0.163194152989077E-005
 0.236080507622289E-006
 0.883862640855043E-006
 0.711470480713143E-008
 0.141918299922862E-008
 0.160606836035829E-007
 0.572593933347680E-008
 0.532052319992235E-003
 0.105918752863278E-002
 0.435591993006216E-002
 0.846971919140387E-003
 0.112928250036365E-008
 0.775517657252344E-008
 0.147186921132739E-007
 0.827618204909550E-008
 0.295631540131790E-008
 0.508634496363455E-010
 0.512761056692736E-010
 0.557946971639769E-010
 0.186114232516077E-006
 0.662503885065144E-007
 0.204133723046870E-005
 0.181122673738162E-006
 0.376680488950496E-011
 0.100000000000000E-011
 0.316635056488523E-011
 0.204715542499463E-011
 0.418306838300944E-008
 0.576785323522599E-009
 0.266097751505145E-009
 0.576924270220513E-009
 0.614604187445872E-010
 0.343370800650346E-008
 0.805019812214376E-009
 0.933168374931561E-009
 0.247330882203672E-006
 0.722078736224407E-008
 0.373778555679707E-007
 0.349937875159487E-007
 0.128912431354229E+000
 0.130235223850516E+000
 0.128852732188502E+000
 0.130479841577116E+000
 0.276851373532621E-003
 0.304504148069156E-003
 0.319068288091764E-004
 0.290264773490889E-003
 0.390027707897427E-002
 0.745941266099960E-002
 0.135593315729892E-001
 0.767658638666756E-002
 0.342134077908841E-005
 0.307272616641557E-004
 0.285263913640780E-004
 0.287775404607730E-004
 0.114172701111733E+000
 0.117131861628211E+000
 0.119797232448985E+000
 0.116874005541705E+000
 0.681563175919587E-001
 0.935374037724305E-001
 0.781226041700495E-001
 0.746766695870358E-001
 0.845226661292565E-001
 0.120553168335556E+000
 0.110986061703480E+000
 0.114637498921274E+000
 0.345428956020595E-002
 0.268337989152444E-001
 0.898231666296042E-002
 0.956809822227513E-002
 0.130897282030612E-001
 0.512085512012724E-001
 0.189913217777191E-001
 0.171806028413892E-001
 0.103011432606628E+000
 0.938835345093754E-001
 0.847570607612538E-001
 0.923217219208412E-001
 0.121919673252880E+000
 0.118918620139981E+000
 0.120506075238765E+000
 0.118791752191956E+000
 0.137586876313660E+000
 0.122070022376860E+000
 0.130816465139255E+000
 0.134186871303971E+000
 0.334868384373872E-001
 0.927543059797755E-001
 0.593309910013914E-001
 0.585791638947406E-001
 0.122960181619685E+000
 0.121726790826353E+000
 0.125939652929550E+000
 0.125251468287953E+000
 0.122569214603701E+000
 0.126302343368448E+000
 0.128168087271058E+000
 0.124609796820952E+000
 0.120535525450657E+000
 0.978288196529559E-001
 0.125378812222245E+000
 0.122736175736400E+000
 0.110242455854669E+000
 0.976248582511402E-001
 0.119923351389003E+000
 0.109810474345845E+000
 0.130317619142146E+000
 0.131764481387175E+000
 0.136902908099442E+000
 0.134585851782993E+000
 0.122757694008019E+000
 0.128568453181209E+000
 0.139640180912987E+000
 0.127305303235746E+000
 0.433671593757356E-001
 0.808931117776564E-001
 0.368404067476799E-001
 0.411978796955160E-001
 0.495229298459925E-001
 0.970722451989569E-001
 0.874713916810879E-001
 0.899344379796051E-001
 0.374421008754526E-001
 0.459302961361423E-001
 0.128194805664680E-001
 0.408703308367548E-001
 0.935568483173533E-001
 0.126758553788446E+000
 0.989407223583767E-001
 0.962632122473650E-001
 0.135508713445271E+000
 0.938712654243336E-001
 0.959176103262892E-001
 0.950372531097941E-001
 0.240994139356204E-001
 0.290349098015137E-001
 0.573066488408224E-001
 0.282000601338106E-001
 0.455363254687415E-003
 0.966512796906869E-004
 0.747130829835608E-003
 0.543298672936615E-003
 0.120049438223180E+000
 0.851910846811609E-001
 0.815503652840246E-001
 0.844690633326797E-001
 0.526090989856250E-001
 0.729096417885984E-001
 0.995492140822695E-001
 0.694694650053382E-001
 0.327510852892853E+000
 0.279940993231841E+000
 0.307916483471594E+000
 0.310904325169681E+000
 0.213235486584804E+000
 0.170581429073680E+000
 0.214238392694176E+000
 0.211149012071926E+000
 0.531479325321719E-001
 0.860719894439536E-001
 0.459868763356395E-001
 0.533795995650210E-001
 0.931420888609606E-001
 0.977971091781786E-001
 0.137639935835550E+000
 0.944954099345816E-001
 0.153710075713675E+000
 0.207296643923970E+000
 0.203526334418807E+000
 0.204552471532407E+000
 0.396680134440609E-001
 0.337053707667467E-001
 0.383822728750030E-001
 0.363976175752676E-001
 0.133398885954579E+000
 0.128214420980850E+000
 0.928033177305102E-001
 0.131989805429921E+000
 0.145384236101715E+000
 0.139860557921289E+000
 0.104914993949682E+000
 0.139106095411866E+000
 0.156707667225369E+000
 0.163312425694975E+000
 0.160283698671998E+000
 0.161531532289428E+000
 0.651052229675541E-001
 0.111221513847102E+000
 0.493877468466800E-001
 0.598032926077758E-001
 0.268047488250182E-001
 0.267137486630378E-001
 0.304125226585864E-001
 0.290742482520845E-001
 0.119758713933192E+000
 0.134121457386194E+000
 0.978031702613624E-001
 0.119141880247597E+000
 0.125331454231081E+000
 0.170896788909199E+000
 0.106880224148453E+000
 0.142587445071775E+000
 0.191535724554727E-001
 0.238117100236608E-001
 0.231314327107484E-001
 0.203759257162603E-001
 0.207766830568275E-004
 0.256412948817712E-004
 0.117262106999699E-004
 0.190279294747105E-004
 0.159544306393754E+000
 0.131547491759610E+000
 0.165912031277294E+000
 0.162783255187898E+000
 0.123524673029713E+000
 0.102985711655713E+000
 0.149364616710809E+000
 0.123953489491031E+000
 0.117713188492315E-001
 0.961489134583089E-002
 0.247331891164877E-002
 0.103126223522949E-001
 0.151859699888341E+000
 0.145708560727756E+000
 0.132161704885787E+000
 0.147199087684301E+000
 0.248085810890825E-001
 0.237517690205305E-001
 0.569677156775714E-001
 0.245652870671081E-001
 0.156533653880027E+000
 0.154332457160157E+000
 0.130912759205682E+000
 0.157663242137726E+000
 0.141941425250055E+000
 0.150613519394120E+000
 0.939437338035698E-001
 0.145108542828933E+000
 0.996196350430708E-001
 0.580209406373787E-001
 0.344953870789498E-001
 0.568485477079016E-001
 0.175155155294535E+000
 0.131751655235706E+000
 0.128919307397431E+000
 0.130752458701466E+000
 0.151980809984418E+000
 0.102955705003307E+000
 0.121327379512628E+000
 0.115773416065362E+000
 0.935831876723684E-001
 0.151944511406094E+000
 0.132290937352187E+000
 0.133650785085085E+000
 0.676734984885011E-001
 0.782652961189141E-001
 0.674121011776121E-001
 0.706136348350164E-001
 0.727393846962045E-001
 0.829871545052687E-001
 0.834526319635673E-001
 0.775158278205306E-001
 0.280195643892127E-002
 0.425393386131747E-002
 0.731195443598504E-001
 0.422396955667622E-002
 0.573351217603906E-001
 0.580326226199601E-001
 0.253125299045993E-001
 0.578804094247158E-001
 0.242271746746203E+000
 0.162380615646879E+000
 0.189134543198437E+000
 0.192204063921515E+000
 0.168849726955471E+000
 0.133978831997403E+000
 0.172229994457334E+000
 0.171001555197056E+000
 0.113309149293375E-005
 0.402218070913623E-005
 0.752440561743676E-005
 0.383534394910322E-005
 0.951690728237599E-001
 0.330292794949872E-001
 0.689354265932669E-001
 0.708735479130385E-001
 0.414375359789715E-003
 0.261059666048388E-002
 0.167020753752776E-002
 0.154831139892153E-002
 0.249918544245021E-002
 0.374155501921215E-003
 0.302701440493178E-002
 0.265128762059979E-002
 0.253862105649568E-001
 0.588684991381518E-001
 0.254968527083389E-001
 0.242754959482716E-001
 0.667268863950673E-005
 0.530242827260677E-005
 0.111848087533402E-005
 0.550924988257363E-005
 0.734437076888277E-003
 0.421639750765181E-002
 0.379980523008911E-002
 0.401108171274607E-002
 0.651109428750246E-001
 0.357198706289730E-001
 0.791088557918783E-001
 0.672447111703009E-001
 0.230620123833700E-002
 0.895023638212438E-002
 0.220049592156535E-002
 0.222453375200988E-002
 0.125032788937245E-003
 0.152680968643683E-004
 0.236044615203824E-004
 0.211238389290767E-004
 0.118228894410269E-003
 0.237549665306669E-003
 0.874629116112056E-003
 0.197665671046367E-003
 0.609512599269627E-003
 0.327862617798488E-002