# vtk DataFile Version 3.0
Unstructured Grid
ASCII
DATASET UNSTRUCTURED_GRID
FIELD FieldData 1
TIME 1 1 float
  0.526091E+03
POINTS         2588 double
 0.000000000000000E+000 0.000000000000000E+000 0.000000000000000E+000
 0.100000000000000E+001 0.000000000000000E+000 0.000000000000000E+000
 0.100000000000000E+001 0.100000000000000E+001 0.000000000000000E+000
 0.000000000000000E+000 0.100000000000000E+001 0.000000000000000E+000
 0.125000000000000E+000 0.250000000000000E+000 0.000000000000000E+000
 0.375000000000000E+000 0.250000000000000E+000 0.000000000000000E+000
 0.375000000000000E+000 0.750000000000000E+000 0.000000000000000E+000
 0.125000000000000E+000 0.750000000000000E+000 0.000000000000000E+000
 0.625000000000000E+000 0.250000000000000E+000 0.000000000000000E+000
 0.875000000000000E+000 0.250000000000000E+000 0.000000000000000E+000
 0.875000000000000E+000 0.750000000000000E+000 0.000000000000000E+000
 0.625000000000000E+000 0.750000000000000E+000 0.000000000000000E+000
 0.100000000000000E+001 0.500000000000000E+000 0.000000000000000E+000
 0.000000000000000E+000 0.500000000000000E+000 0.000000000000000E+000
 0.500000000000000E+000 0.000000000000000E+000 0.000000000000000E+000
 0.125000000000000E+000 0.500000000000000E+000 0.000000000000000E+000
 0.000000000000000E+000 0.750000000000000E+000 0.000000000000000E+000
 0.000000000000000E+000 0.250000000000000E+000 0.000000000000000E+000
 0.000000000000000E+000 0.875000000000000E+000 0.000000000000000E+000
 0.000000000000000E+000 0.125000000000000E+000 0.000000000000000E+000
 0.000000000000000E+000 0.812500000000000E+000 0.000000000000000E+000
 0.625000000000000E-001 0.812500000000000E+000 0.000000000000000E+000
 0.125000000000000E+000 0.375000000000000E+000 0.000000000000000E+000
 0.000000000000000E+000 0.375000000000000E+000 0.000000000000000E+000
 0.125000000000000E+000 0.625000000000000E+000 0.000000000000000E+000
 0.312500000000000E-001 0.781250000000000E+000 0.000000000000000E+000
 0.000000000000000E+000 0.625000000000000E+000 0.000000000000000E+000
 0.781250000000000E-001 0.765625000000000E+000 0.000000000000000E+000
 0.364583333333333E-001 0.744791666666667E+000 0.000000000000000E+000
 0.000000000000000E+000 0.687500000000000E+000 0.000000000000000E+000
 0.312500000000000E-001 0.843750000000000E+000 0.000000000000000E+000
 0.500000000000000E+000 0.100000000000000E+001 0.000000000000000E+000
 0.117915518486872E+000 0.805415518486872E+000 0.000000000000000E+000
 0.531250000000000E-001 0.896875000000000E+000 0.000000000000000E+000
 0.128125000000000E+000 0.862500000000000E+000 0.000000000000000E+000
 0.852352799227800E-001 0.850726351351351E+000 0.000000000000000E+000
 0.250000000000000E+000 0.750000000000000E+000 0.000000000000000E+000
 0.000000000000000E+000 0.937500000000000E+000 0.000000000000000E+000
 0.250000000000000E+000 0.100000000000000E+001 0.000000000000000E+000
 0.125000000000000E+000 0.100000000000000E+001 0.000000000000000E+000
 0.559955578663221E-001 0.864626829113867E+000 0.000000000000000E+000
 0.201656717908302E+000 0.819893736067327E+000 0.000000000000000E+000
 0.181985294117647E-001 0.906250000000000E+000 0.000000000000000E+000
 0.157158578892515E+000 0.827852167423944E+000 0.000000000000000E+000
 0.173219498992632E+000 0.789273026175030E+000 0.000000000000000E+000
 0.190370748034901E+000 0.885171153579592E+000 0.000000000000000E+000
 0.163362285670037E+000 0.862539079232243E+000 0.000000000000000E+000
 0.145689809422689E+000 0.911060496538305E+000 0.000000000000000E+000
 0.260169562085505E+000 0.921822264266383E+000 0.000000000000000E+000
 0.999952720236157E-001 0.900131729869707E+000 0.000000000000000E+000
 0.181336648989602E+000 0.921080529637299E+000 0.000000000000000E+000
 0.187500000000000E+000 0.100000000000000E+001 0.000000000000000E+000
 0.625000000000000E-001 0.100000000000000E+001 0.000000000000000E+000
 0.391044682108720E-001 0.939348618511729E+000 0.000000000000000E+000
 0.987901813178879E-001 0.953497897705852E+000 0.000000000000000E+000
 0.127430470763290E+000 0.938015442955272E+000 0.000000000000000E+000
 0.735147503821561E-001 0.927156548383149E+000 0.000000000000000E+000
 0.187500000000000E+000 0.750000000000000E+000 0.000000000000000E+000
 0.937500000000000E-001 0.986976003387646E+000 0.000000000000000E+000
 0.647068558612996E-001 0.964310770745732E+000 0.000000000000000E+000
 0.287348941263244E-001 0.975594752089430E+000 0.000000000000000E+000
 0.140548246895551E+000 0.780148342865875E+000 0.000000000000000E+000
 0.625000000000000E-001 0.656250000000000E+000 0.000000000000000E+000
 0.885416666666667E-001 0.718750000000000E+000 0.000000000000000E+000
 0.125000000000000E+000 0.687500000000000E+000 0.000000000000000E+000
 0.418778153153153E-001 0.701096693284193E+000 0.000000000000000E+000
 0.130000591648319E-001 0.718750000000000E+000 0.000000000000000E+000
 0.886787280701754E-001 0.682017543859649E+000 0.000000000000000E+000
 0.324539302647226E+000 0.874753539998500E+000 0.000000000000000E+000
 0.220842706957930E+000 0.911928394103011E+000 0.000000000000000E+000
 0.255656705174793E+000 0.856653769033302E+000 0.000000000000000E+000
 0.230240640268531E+000 0.957679342037283E+000 0.000000000000000E+000
 0.247273788001812E+000 0.889974781313083E+000 0.000000000000000E+000
 0.287822583654814E+000 0.892090285129540E+000 0.000000000000000E+000
 0.375000000000000E+000 0.100000000000000E+001 0.000000000000000E+000
 0.312500000000000E+000 0.100000000000000E+001 0.000000000000000E+000
 0.296339471848887E+000 0.927737349884604E+000 0.000000000000000E+000
 0.272754945277513E+000 0.963602684427479E+000 0.000000000000000E+000
 0.218750000000000E+000 0.100000000000000E+001 0.000000000000000E+000
 0.156250000000000E+000 0.970185411869689E+000 0.000000000000000E+000
 0.193067439035452E+000 0.962879965079150E+000 0.000000000000000E+000
 0.366022419631980E+000 0.930828672570042E+000 0.000000000000000E+000
 0.331917636626289E+000 0.912676918057824E+000 0.000000000000000E+000
 0.218750000000000E+000 0.780050991479902E+000 0.000000000000000E+000
 0.270314960374965E+000 0.802399429390985E+000 0.000000000000000E+000
 0.239019213447470E+000 0.823051378525603E+000 0.000000000000000E+000
 0.312500000000000E+000 0.750000000000000E+000 0.000000000000000E+000
 0.297176692881550E+000 0.838764170920897E+000 0.000000000000000E+000
 0.316491084060399E+000 0.796393690767677E+000 0.000000000000000E+000
 0.343750000000000E+000 0.770680188507291E+000 0.000000000000000E+000
 0.409908719410776E+000 0.836702006091634E+000 0.000000000000000E+000
 0.362591033297072E+000 0.817958948082628E+000 0.000000000000000E+000
 0.401086171766563E+000 0.789875587437421E+000 0.000000000000000E+000
 0.371341896832358E+000 0.864966336467817E+000 0.000000000000000E+000
 0.333452116450771E+000 0.839580614538559E+000 0.000000000000000E+000
 0.625000000000000E+000 0.500000000000000E+000 0.000000000000000E+000
 0.497245004128187E+000 0.796002674320860E+000 0.000000000000000E+000
 0.375000000000000E+000 0.625000000000000E+000 0.000000000000000E+000
 0.448383797292392E+000 0.805208595628784E+000 0.000000000000000E+000
 0.410140101146819E+000 0.755482168792868E+000 0.000000000000000E+000
 0.466643384891561E+000 0.767852445997818E+000 0.000000000000000E+000
 0.476967665188550E+000 0.732032311892081E+000 0.000000000000000E+000
 0.540753556856103E+000 0.747012385328872E+000 0.000000000000000E+000
 0.490851671729155E+000 0.896339978179292E+000 0.000000000000000E+000
 0.457989751325779E+000 0.856193010026991E+000 0.000000000000000E+000
 0.477617377726983E+000 0.826097842173926E+000 0.000000000000000E+000
 0.546397010943533E+000 0.849506899903764E+000 0.000000000000000E+000
 0.514994092174850E+000 0.829026377565149E+000 0.000000000000000E+000
 0.557956128164421E+000 0.797467818442289E+000 0.000000000000000E+000
 0.513053884697208E+000 0.866316721845202E+000 0.000000000000000E+000
 0.531719458287368E+000 0.903340824708691E+000 0.000000000000000E+000
 0.750000000000000E+000 0.100000000000000E+001 0.000000000000000E+000
 0.503122841217304E+000 0.947490703764094E+000 0.000000000000000E+000
 0.428509525448068E+000 0.913846660476909E+000 0.000000000000000E+000
 0.625000000000000E+000 0.100000000000000E+001 0.000000000000000E+000
 0.410139362032626E+000 0.877461197108989E+000 0.000000000000000E+000
 0.393550593852374E+000 0.908666538512922E+000 0.000000000000000E+000
 0.455853425536278E+000 0.891464570133054E+000 0.000000000000000E+000
 0.465565809489837E+000 0.931223943045515E+000 0.000000000000000E+000
 0.430803944763131E+000 0.957152995135723E+000 0.000000000000000E+000
 0.361862549463301E+000 0.897277191535820E+000 0.000000000000000E+000
 0.281250000000000E+000 0.768022264880110E+000 0.000000000000000E+000
 0.528016132294562E+000 0.779515446907155E+000 0.000000000000000E+000
 0.582435077211395E+000 0.760961532636893E+000 0.000000000000000E+000
 0.594258447236559E+000 0.718750000000000E+000 0.000000000000000E+000
 0.513210480866922E+000 0.721000388231171E+000 0.000000000000000E+000
 0.625000000000000E+000 0.625000000000000E+000 0.000000000000000E+000
 0.293099715520438E+000 0.681007179427844E+000 0.000000000000000E+000
 0.625000000000000E+000 0.687500000000000E+000 0.000000000000000E+000
 0.375000000000000E+000 0.500000000000000E+000 0.000000000000000E+000
 0.588365877190365E+000 0.682207614843486E+000 0.000000000000000E+000
 0.544806337802789E+000 0.700097114505632E+000 0.000000000000000E+000
 0.473117607324743E+000 0.654334216996401E+000 0.000000000000000E+000
 0.507976816774602E+000 0.678758937084175E+000 0.000000000000000E+000
 0.471770128441152E+000 0.693345422145358E+000 0.000000000000000E+000
 0.540484989053884E+000 0.595274872726202E+000 0.000000000000000E+000
 0.434924684287812E+000 0.717988149163748E+000 0.000000000000000E+000
 0.438762107036035E+000 0.672676424045669E+000 0.000000000000000E+000
 0.514022824851611E+000 0.633041943182225E+000 0.000000000000000E+000
 0.375000000000000E+000 0.687500000000000E+000 0.000000000000000E+000
[...]
CELL_DATA         5036
SCALARS tdens double 1
LOOKUP_TABLE default
 0.100000000000000E-011
 0.100000000000000E-011
 0.100000000000000E-011
 0.100000000000000E-011
 0.213768098702622E-008
 0.168501227855175E-009
 0.229201951199816E-009
 0.195436256140889E-009
 0.546091497582019E-001
 0.876478477629682E-001
 0.967571347116378E-001
 0.929077679352689E-001
 0.100000000000000E-011
 0.100000000000000E-011
 0.100000000000000E-011
 0.100000000000000E-011
 0.100000000000000E-011
 0.100000000000000E-011
 0.100000000000000E-011
 0.100000000000000E-011
 0.100000000000000E-011
 0.100000000000000E-011
 0.100000000000000E-011
 0.100000000000000E-011
 0.502461905734470E-002
 0.344754847368995E-002
 0.468289466257219E-001
 0.440432302107875E-002
 0.120179364215376E+000
 0.151399192181954E+000
 0.110000430659050E+000
 0.119071884583060E+000
 0.159922118983844E+000
 0.201232783350688E+000
 0.206407852540882E+000
 0.204334823317353E+000
 0.100000000000000E-011
 0.100000000000000E-011
 0.100000000000000E-011
 0.100000000000000E-011
 0.327735898046296E-011
 0.175099094091987E-010
 0.145472314613606E-010
 0.166428907121197E-010
 0.169823823388842E-007
 0.643605305134753E-007
 0.396642229614007E-007
 0.387402980944406E-007
 0.130249415434159E-011
 0.100000000000000E-011
 0.100000000000000E-011
 0.100000000000000E-011
 0.128013833320174E+000
 0.761818644996301E-001
 0.998169790974344E-001
 0.863173121161160E-001
 0.157791556684542E-002
 0.114435946423295E-003
 0.268456567262174E-003
 0.230109151940762E-003
 0.133573504795526E+000
 0.147201849398333E+000
 0.205364361499684E+000
 0.143851951789578E+000
 0.100000000000000E-011
 0.100000000000000E-011
 0.100000000000000E-011
 0.100000000000000E-011
 0.566207484817540E-010
 0.726409435911821E-002
 0.207825401779734E-003
 0.245895536566869E-003
 0.100000000000000E-011
 0.100000000000000E-011
 0.100000000000000E-011
 0.100000000000000E-011
 0.146571713147160E+000
 0.150830992970446E+000
 0.125639366553466E+000
 0.149304588787968E+000
 0.360306031503497E-006
 0.526594487338043E-005
 0.148962164240388E-006
 0.305434181620122E-006
 0.100000000000000E-011
 0.100000000000000E-011
 0.100000000000000E-011
 0.100000000000000E-011
 0.150844104475296E+000
 0.149191919722352E+000
 0.137028125028406E+000
 0.149170014026247E+000
 0.100000000000000E-011
 0.100000000000000E-011
 0.100000000000000E-011
 0.100000000000000E-011
 0.143228534362740E+000
 0.158857558017695E+000
 0.161131255764648E+000
 0.160402354084384E+000
 0.110884400370612E+000
 0.121540857940331E+000
 0.803936241761706E-001
 0.114157947433466E+000
 0.100000000000000E-011
 0.100000000000000E-011
 0.100000000000000E-011
 0.100000000000000E-011
 0.144510641861317E-003
 0.815020014185358E-005
 0.981128475909759E-004
 0.109741429094767E-003
 0.199728676898189E-001
 0.380512405599628E-002
 0.223004749870436E-001
 0.202508271753567E-001
 0.274607687925166E-010
 0.262058282116750E-011
 0.461607309383634E-011
 0.429995831250350E-011
 0.100000000000000E-011
 0.100000000000000E-011
 0.100000000000000E-011
 0.100000000000000E-011
 0.137974143416836E-011
 0.481899745317118E-011
 0.811191961925433E-010
 0.326545722155776E-011
 0.100000000000000E-011
 0.100000000000000E-011
 0.100000000000000E-011
 0.100000000000000E-011
 0.607676215799411E-010
 0.472890238860129E-002
 0.659912684797965E-002
 0.701487913764639E-002
 0.100000000000000E-011
 0.100000000000000E-011
 0.100000000000000E-011
 0.100000000000000E-011
 0.100000000000000E-011
 0.100000000000000E-011
 0.100000000000000E-011
 0.100000000000000E-011
 0.100000000000000E-011
 0.100000000000000E-011
 0.100000000000000E-011
 0.100000000000000E-011
 0.100000000000000E-011
 0.100000000000000E-011
 0.100000000000000E-011
 0.100000000000000E-011
 0.100000000000000E-011
 0.100000000000000E-011
 0.100000000000000E-011
 0.100000000000000E-011
 0.100000000000000E-011
 0.100000000000000E-011
 0.100000000000000E-011
 0.100000000000000E-011
 0.100000000000000E-011
 0.100000000000000E-011
 0.100000000000000E-011
 0.100000000000000E-011
 0.331230921593062E-001
 0.508432066161825E-001
 0.600879904550328E-001
 0.529807600842042E-001
 0.100000000000000E-011
 0.100000000000000E-011
 0.100000000000000E-011
 0.100000000000000E-011
 0.100000000000000E-011
 0.100000000000000E-011
 0.100000000000000E-011
 0.100000000000000E-011
 0.100000000000000E-011
 0.100000000000000E-011
 0.100000000000000E-011
 0.100000000000000E-011
 0.100000000000000E-011
 0.100000000000000E-011
 0.100000000000000E-011
 0.100000000000000E-011
 0.796843905457887E-007
 0.279277547957090E-006
 0.340878547976716E-006
 0.351788253284489E-006
 0.100000000000000E-011
 0.100000000000000E-011
 0.100000000000000E-011
 0.100000000000000E-011
 0.100000000000000E-011
 0.256931822960364E-002
 0.103657150604323E-001
 0.528448746449852E-002
 0.100000000000000E-011
 0.100000000000000E-011
 0.100000000000000E-011
 0.100000000000000E-011
 0.100000000000000E-011
 0.100000000000000E-011
 0.100000000000000E-011
 0.100000000000000E-011
 0.100000000000000E-011
 0.100000000000000E-011
 0.100000000000000E-011
 0.100000000000000E-011
 0.100000000000000E-011
 0.100000000000000E-011
 0.100000000000000E-011
 0.100000000000000E-011
 0.100000000000000E-011
 0.100000000000000E-011
 0.100000000000000E-011
 0.100000000000000E-011
 0.100000000000000E-011
 0.100000000000000E-011
 0.100000000000000E-011
 0.100000000000000E-011
 0.100000000000000E-011
 0.100000000000000E-011
 0.100000000000000E-011
 0.100000000000000E-011
 0.100000000000000E-011
 0.100000000000000E-011
 0.100000000000000E-011
 0.100000000000000E-011
 0.517124676146394E-001
 0.338242053401010E-001
 0.640753414587725E-001
 0.399546940950702E-001
 0.119363105097560E-005
 0.138373700377433E-004
 0.462821554273624E-003
 0.189703815039392E-004
 0.100000000000000E-011
 0.100000000000000E-011
 0.100000000000000E-011
 0.100000000000000E-011
 0.155621936507167E-006
 0.113363549171804E-006
 0.311940004310280E-005
 0.100456304983069E-006
 0.100000000000000E-011
 0.100000000000000E-011
 0.100000000000000E-011
 0.100000000000000E-011
 0.565112170140423E-002
 0.220649908730424E-001
 0.699115861416947E-003
 0.661546408799835E-002
 0.100000000000000E-011
 0.100000000000000E-011
 0.100000000000000E-011
 0.100000000000000E-011
 0.100000000000000E-011
 0.100000000000000E-011
 0.100000000000000E-011
 0.100000000000000E-011
 0.100000000000000E-011
 0.100000000000000E-011
 0.100000000000000E-011
 0.100000000000000E-011
 0.325346622910630E-001
 0.568622655400480E-002
 0.148723723515129E-002
 0.488087591666712E-002
 0.883528337115873E-001
 0.117365121349999E+000
 0.109260464868101E+000
 0.100589707538007E+000
 0.148075175632629E-001
 0.297353290398744E-001
 0.492851502991750E-001
 0.385589805766704E-001
 0.317456033326107E-001
 0.680005680865018E-001
 0.941704147057262E-001
 0.677979113351198E-001
 0.206256667532753E-006
 0.286621174412890E-003
 0.293922331570675E-004
 0.358289929185967E-004
 0.282051308825596E-001
 0.130974384552889E-002
 0.136986743039607E-001
 0.164496494127517E-001
 0.116650168870077E-011
 0.448029180590809E-010
 0.497465109186560E-010
 0.442001091785306E-010
 0.532799325317628E-011
 0.142159397581724E-011
 0.536753751655900E-010
 0.526539085542997E-011
 0.100000000000000E-011
 0.100000000000000E-011
 0.100000000000000E-011
 0.100000000000000E-011
 0.132242008147969E-010
 0.357654049811120E-008
 0.533059750947448E-008
 0.261600005214951E-008
 0.100000000000000E-011
 0.100000000000000E-011
 0.100000000000000E-011
 0.100000000000000E-011
 0.100000000000000E-011
 0.100000000000000E-011
 0.100000000000000E-011
 0.100000000000000E-011
 0.100000000000000E-011
 0.100000000000000E-011
 0.100000000000000E-011
 0.100000000000000E-011
 0.714853084623043E-011
 0.558769805346502E-010
 0.519957961871787E-010
 0.670476932953452E-010
 0.272174341926470E-006
 0.970132382316142E-006
 0.321190048911059E-006
 0.357241287017602E-006
 0.100000000000000E-011
 0.100000000000000E-011
 0.100000000000000E-011
 0.100000000000000E-011
 0.100000000000000E-011
 0.562508518243458E-010
 0.337371650462157E-011
 0.331565614819594E-011
 0.100000000000000E-011
 0.100000000000000E-011
 0.100000000000000E-011
 0.100000000000000E-011
 0.100000000000000E-011
 0.100000000000000E-011
 0.100000000000000E-011
 0.100000000000000E-011
 0.100000000000000E-011
 0.100000000000000E-011
 0.100000000000000E-011
 0.100000000000000E-011
 0.100000000000000E-011
 0.100000000000000E-011
 0.100000000000000E-011
 0.100000000000000E-011
 0.100000000000000E-011
 0.100000000000000E-011
 0.100000000000000E-011
 0.100000000000000E-011
 0.100000000000000E-011
 0.100000000000000E-011
 0.100000000000000E-011
 0.100000000000000E-011
 0.100000000000000E-011
 0.100000000000000E-011
 0.100000000000000E-011
 0.100000000000000E-011
 0.100000000000000E-011
 0.100000000000000E-011
 0.100000000000000E-011
 0.100000000000000E-011
 0.100000000000000E-011
 0.100000000000000E-011
 0.100000000000000E-011
 0.100000000000000E-011
 0.873292652430748E-001
 0.597229698562706E-001
 0.698751869535268E-001
 0.791837556351933E-001
 0.155900343370183E-001
 0.231338027581742E-001
 0.789456757348901E-002
 0.161051723169365E-001
 0.100000000000000E-011
 0.100000000000000E-011
 0.100000000000000E-011
 0.100000000000000E-011
 0.100000000000000E-011
 0.100000000000000E-011
 0.100000000000000E-011
 0.100000000000000E-011
 0.100000000000000E-011
 0.100000000000000E-011
 0.100000000000000E-011
 0.100000000000000E-011
 0.100000000000000E-011
 0.100000000000000E-011
 0.100000000000000E-011
 0.100000000000000E-011
 0.100000000000000E-011
 0.100000000000000E-011
 0.100000000000000E-011
 0.100000000000000E-011
 0.100000000000000E-011
 0.100000000000000E-011
 0.100000000000000E-011
 0.100000000000000E-011
 0.491527608795834E-001
 0.197204320762665E-001
 0.133288786668214E-001
 0.321428880681400E-001
 0.286524659172182E-001
 0.254562590797648E-001
 0.426238327437923E-001
 0.347255561952844E-001
 0.100000000000000E-011
 0.100000000000000E-011
 0.100000000000000E-011
 0.100000000000000E-011
 0.100000000000000E-011
 0.100000000000000E-011
 0.100000000000000E-011
 0.100000000000000E-011
 0.100000000000000E-011
 0.100000000000000E-011
 0.100000000000000E-011
 0.100000000000000E-011
 0.100000000000000E-011
 0.100000000000000E-011
 0.100000000000000E-011
 0.100000000000000E-011
 0.100000000000000E-011
 0.100000000000000E-011
 0.100000000000000E-011
 0.100000000000000E-011
 0.100000000000000E-011
 0.100000000000000E-011
 0.100000000000000E-011
 0.100000000000000E-011
 0.100000000000000E-011
 0.100000000000000E-011
 0.100000000000000E-011
 0.100000000000000E-011
 0.100000000000000E-011
 0.100000000000000E-011
 0.100000000000000E-011
 0.100000000000000E-011
 0.100000000000000E-011
 0.100000000000000E-011
 0.100000000000000E-011
 0.100000000000000E-011
 0.100000000000000E-011
 0.100000000000000E-011
 0.100000000000000E-011
 0.100000000000000E-011
 0.100000000000000E-011
 0.100000000000000E-011
 0.100000000000000E-011
 0.100000000000000E-011
 0.100000000000000E-011
 0.100000000000000E-011
 0.100000000000000E-011
 0.100000000000000E-011
 0.460714199263132E-001
 0.246180272633968E-001
 0.962199826922753E-002
 0.232957667186123E-001
 0.130792550690849E-007
 0.277683486617603E-007
 0.246084163579205E-009
 0.138363580800195E-007
 0.303630291608687E-006
 0.894558168577242E-008
 0.831568691086282E-008
 0.969601629057640E-008
 0.112498736662947E+000
 0.110844795412067E+000
 0.914616262232608E-001
 0.113395300843549E+000
 0.763913739890003E-004
 0.216553269086218E-002
 0.133364642003274E-003
 0.104243509368878E-003
 0.100000000000000E-011
 0.100000000000000E-011
 0.100000000000000E-011
 0.100000000000000E-011
 0.100000000000000E-011
 0.100000000000000E-011
 0.100000000000000E-011
 0.100000000000000E-011
 0.289501713708452E-003
 0.256024357898641E-006
 0.678458916740569E-006
 0.513215243452000E-006
 0.856820553412887E-002
 0.239593356764304E-001
 0.153237780661649E-002
 0.804600322978496E-002
 0.294292753341145E-009
 0.307225112620427E-007
 0.171549257077867E-008
 0.161934781580276E-008
 0.284238029234839E-006
 0.251584723975453E-005
 0.101226268764382E-005
 0.162278751962473E-005
 0.636411585379596E-006
 0.309497605535732E-006
 0.771253032908213E-006
 0.690494285976860E-006
 0.117742254857090E-008
 0.191703167375064E-008
 0.130073823865524E-009
 0.966438511356819E-009
 0.100000000000000E-011
 0.100000000000000E-011
 0.100000000000000E-011
 0.100000000000000E-011
 0.464811753764700E-004
 0.127580912234105E-003
 0.172025757331135E-002
 0.989101426285281E-004
 0.100000000000000E-011
 0.100000000000000E-011
 0.100000000000000E-011
 0.100000000000000E-011
 0.100000000000000E-011
 0.100000000000000E-011
 0.100000000000000E-011
 0.100000000000000E-011
 0.986595610832799E-010
 0.156456131508271E-010
 0.588867347010614E-008
 0.104630800455639E-009
 0.100000000000000E-011
 0.100000000000000E-011
 0.100000000000000E-011
 0.100000000000000E-011
 0.100000000000000E-011
 0.100000000000000E-011
 0.100000000000000E-011
 0.100000000000000E-011
 0.100000000000000E-011
 0.100000000000000E-011
 0.100000000000000E-011
 0.100000000000000E-011
 0.477487204133727E-010
 0.100000000000000E-011
 0.467600103519264E-011
 0.436316932228621E-011
 0.132113462475524E+000
 0.133963751889132E+000
 0.131588712625590E+000
 0.133719062056831E+000
 0.155571442567801E-004
 0.168901780719699E-004
 0.207744214072673E-006
 0.166437611751522E-004
 0.119215824597826E-002
 0.359965041420206E-002
 0.834991908013135E-002
 0.387897054195497E-002
 0.961874577375228E-008
 0.277295575284466E-006
 0.285218664189414E-006
 0.281443342990388E-006
 0.114899745194329E+000
 0.118248874410877E+000
 0.121518893386819E+000
 0.117983841188725E+000
 0.689565486579821E-001
 0.945900359783748E-001
 0.794530592026020E-001
 0.757127077411079E-001
 0.872170741053316E-001
 0.124374868093674E+000
 0.114963660729480E+000
 0.118454852218966E+000
 0.147444151918292E-002
 0.236896468196059E-001
 0.538763527822867E-002
 0.579172564635445E-002
 0.104243131521802E-001
 0.507360056180751E-001
 0.159961181046099E-001
 0.141332227278077E-001
 0.104443203633883E+000
 0.956255063589362E-001
 0.864371855206367E-001
 0.940453306804238E-001
 0.124065519156345E+000
 0.120201527091273E+000
 0.122022025267409E+000
 0.119999437729263E+000
 0.141015628971665E+000
 0.125348945569899E+000
 0.133897158755690E+000
 0.137668850117393E+000
 0.313734921470396E-001
 0.956146215638456E-001
 0.596380536849746E-001
 0.580899763183733E-001
 0.125327701616150E+000
 0.123413659808664E+000
 0.128191954017339E+000
 0.127442510043530E+000
 0.126652777245043E+000
 0.129754987815455E+000
 0.130635244506807E+000
 0.127996144776495E+000
 0.124967927911216E+000
 0.101471255082189E+000
 0.129483452225195E+000
 0.127142350506851E+000
 0.115559054450474E+000
 0.101459310855949E+000
 0.124202965755457E+000
 0.115220720054411E+000
 0.134470528225943E+000
 0.135132298269088E+000
 0.140915832127798E+000
 0.138210406007887E+000
 0.127339515974787E+000
 0.133038274230376E+000
 0.144130133383955E+000
 0.131944525577356E+000
 0.412207309345504E-001
 0.824489720170215E-001
 0.336330524395831E-001
 0.385924452650698E-001
 0.481865150788493E-001
 0.100331745617784E+000
 0.897715814833192E-001
 0.925313550617602E-001
 0.347148857359537E-001
 0.441047218370343E-001
 0.840780662313705E-002
 0.386686018344525E-001
 0.964986209529651E-001
 0.130870133080108E+000
 0.102475449408456E+000
 0.996484370158553E-001
 0.139260864101708E+000
 0.970183318764018E-001
 0.991120513496112E-001
 0.982693457710779E-001
 0.196080282885585E-001
 0.250522127432780E-001
 0.557211036565379E-001
 0.239101408775544E-001
 0.448805112805693E-004
 0.246857343922497E-005
 0.981277618180091E-004
 0.534845664506237E-004
 0.123742748955828E+000
 0.880056138624435E-001
 0.840767554799917E-001
 0.870910122722474E-001
 0.516857199493716E-001
 0.742478206995184E-001
 0.102928241161389E+000
 0.704737777543171E-001
 0.337155349616240E+000
 0.286444658918123E+000
 0.317752527692429E+000
 0.319961187980449E+000
 0.224066610261870E+000
 0.178294613504962E+000
 0.225556812289708E+000
 0.222147446846644E+000
 0.459728534269077E-001
 0.813933785018111E-001
 0.365380425015913E-001
 0.455414825402592E-001
 0.945188383371682E-001
 0.100071735909147E+000
 0.144039561543016E+000
 0.961209001427785E-001
 0.148356506560341E+000
 0.208092768890841E+000
 0.206302857131304E+000
 0.206402721345508E+000
 0.291728338396894E-001
 0.233384677657915E-001
 0.318157016078539E-001
 0.259705388172635E-001
 0.137193010494218E+000
 0.132120491988240E+000
 0.959193202630520E-001
 0.135970992157810E+000
 0.151850350688885E+000
 0.146223527519722E+000
 0.108044384598312E+000
 0.145243968632335E+000
 0.160402008287197E+000
 0.171706670113787E+000
 0.167799250821231E+000
 0.169312466786235E+000
 0.606345603422842E-001
 0.111909388360433E+000
 0.441005774395509E-001
 0.549635336370630E-001
 0.190274974528804E-001
 0.214490354789374E-001
 0.211181903581838E-001
 0.204303756067532E-001
 0.122604306103870E+000
 0.137917755840802E+000
 0.100681143867148E+000
 0.122023968856247E+000
 0.117824849482375E+000
 0.162552713093981E+000
 0.100208763388924E+000
 0.134669595787727E+000
 0.152306450460510E-001
 0.192116973532579E-001
 0.176234187533161E-001
 0.161936694645116E-001
 0.172578085152465E-006
 0.152733050258523E-006
 0.641011887404704E-007
 0.140096819400917E-006
 0.167167396820712E+000
 0.134243662399415E+000
 0.174710259368071E+000
 0.170790361182053E+000
 0.126065414926188E+000
 0.102653858950520E+000
 0.155387981607426E+000
 0.126363243097037E+000
 0.670260209843394E-002
 0.497620665816197E-002
 0.585039804548947E-003
 0.550965254206549E-002
 0.158757682968025E+000
 0.151134608731547E+000
 0.135642162082719E+000
 0.152805660042700E+000
 0.198152120858563E-001
 0.189388969816417E-001
 0.552911712638073E-001
 0.195896423433723E-001
 0.163621107064006E+000
 0.161442661523531E+000
 0.134256346972386E+000
 0.165078806880147E+000
 0.148828537954103E+000
 0.158441728436518E+000
 0.950896724502109E-001
 0.152456605874725E+000
 0.101262085369813E+000
 0.546989641753621E-001
 0.298186618835045E-001
 0.536535423901437E-001
 0.183536975546250E+000
 0.133650920095787E+000
 0.127577412043288E+000
 0.131117068591653E+000
 0.158412501179801E+000
 0.101749268627091E+000
 0.122766911659521E+000
 0.116455047235324E+000
 0.947616131824453E-001
 0.159876823880347E+000
 0.137904650248148E+000
 0.139423424060833E+000
 0.578370227150060E-001
 0.675737126670962E-001
 0.574191201275120E-001
 0.603468533983422E-001
 0.624437595961868E-001
 0.720136538031604E-001
 0.724670270024806E-001
 0.667815916008022E-001
 0.147299385501267E-002
 0.221081547211703E-002
 0.741896112990454E-001
 0.209882570534149E-002
 0.554709600718318E-001
 0.557952058182944E-001
 0.200845061834403E-001
 0.560416745038393E-001
 0.251618483853355E+000
 0.153616613652839E+000
 0.190203424319932E+000
 0.191119019730307E+000
 0.177852196150501E+000
 0.136692866843074E+000
 0.180860657667370E+000
 0.179639343667404E+000
 0.112948013027644E-008
 0.871966395096539E-008
 0.207862856428660E-007
 0.800426712827525E-008
 0.963132374955187E-001
 0.282906062162054E-001
 0.673998949173593E-001
 0.694875972432618E-001
 0.457598882630311E-004
 0.625187689403990E-003
 0.359155555311061E-003
 0.334344019873257E-003
 0.586508293730135E-003
 0.368831516003976E-004
 0.770087900139117E-003
 0.645326084851673E-003
 0.201404614914348E-001
 0.564952956700441E-001
 0.201160134625091E-001
 0.190394247400608E-001
 0.169498589492880E-007
 0.129285905544536E-007
 0.102892668305341E-008
 0.137029628941361E-007
 0.900670573404416E-004
 0.129898213357469E-002
 0.107065255552450E-002
 0.117123993516203E-002
 0.645419064634416E-001
 0.322969033460646E-001
 0.804191002664352E-001
 0.670129303202890E-001
 0.501146613291019E-003
 0.444782715008572E-002
 0.449404760540917E-003
 0.459765085187473E-003
 0.494562995024287E-005
 0.663723304973827E-007
 0.129854825975632E-006
 0.113450236489276E-006
 0.353163893249878E-005
 0.108376752758566E-004
 0.121311366858287E-003
 0.880583922074961E-005
 0.708688661521721E-004
 0.875751114529751E-003