# vtk DataFile Version 3.0
Unstructured Grid
ASCII
DATASET UNSTRUCTURED_GRID
FIELD FieldData 1
TIME 1 1 float
  0.685078E+02
POINTS         2588 double
 0.000000000000000E+000 0.000000000000000E+000 0.000000000000000E+000
 0.100000000000000E+001 0.000000000000000E+000 0.000000000000000E+000
 0.100000000000000E+001 0.100000000000000E+001 0.000000000000000E+000
 0.000000000000000E+000 0.100000000000000E+001 0.000000000000000E+000
 0.125000000000000E+000 0.250000000000000E+000 0.000000000000000E+000
 0.375000000000000E+000 0.250000000000000E+000 0.000000000000000E+000
 0.375000000000000E+000 0.750000000000000E+000 0.000000000000000E+000
 0.125000000000000E+000 0.750000000000000E+000 0.000000000000000E+000
 0.625000000000000E+000 0.250000000000000E+000 0.000000000000000E+000
 0.875000000000000E+000 0.250000000000000E+000 0.000000000000000E+000
 0.875000000000000E+000 0.750000000000000E+000 0.000000000000000E+000
 0.625000000000000E+000 0.750000000000000E+000 0.000000000000000E+000
 0.100000000000000E+001 0.500000000000000E+000 0.000000000000000E+000
 0.000000000000000E+000 0.500000000000000E+000 0.000000000000000E+000
 0.500000000000000E+000 0.000000000000000E+000 0.000000000000000E+000
 0.125000000000000E+000 0.500000000000000E+000 0.000000000000000E+000
 0.000000000000000E+000 0.750000000000000E+000 0.000000000000000E+000
 0.000000000000000E+000 0.250000000000000E+000 0.000000000000000E+000
 0.000000000000000E+000 0.875000000000000E+000 0.000000000000000E+000
 0.000000000000000E+000 0.125000000000000E+000 0.000000000000000E+000
 0.000000000000000E+000 0.812500000000000E+000 0.000000000000000E+000
 0.625000000000000E-001 0.812500000000000E+000 0.000000000000000E+000
 0.125000000000000E+000 0.375000000000000E+000 0.000000000000000E+000
 0.000000000000000E+000 0.375000000000000E+000 0.000000000000000E+000
 0.125000000000000E+000 0.625000000000000E+000 0.000000000000000E+000
 0.312500000000000E-001 0.781250000000000E+000 0.000000000000000E+000
 0.000000000000000E+000 0.625000000000000E+000 0.000000000000000E+000
 0.781250000000000E-001 0.765625000000000E+000 0.000000000000000E+000
 0.364583333333333E-001 0.744791666666667E+000 0.000000000000000E+000
 0.000000000000000E+000 0.687500000000000E+000 0.000000000000000E+000
 0.312500000000000E-001 0.843750000000000E+000 0.000000000000000E+000
 0.500000000000000E+000 0.100000000000000E+001 0.000000000000000E+000
 0.117915518486872E+000 0.805415518486872E+000 0.000000000000000E+000
 0.531250000000000E-001 0.896875000000000E+000 0.000000000000000E+000
 0.128125000000000E+000 0.862500000000000E+000 0.000000000000000E+000
 0.852352799227800E-001 0.850726351351351E+000 0.000000000000000E+000
 0.250000000000000E+000 0.750000000000000E+000 0.000000000000000E+000
 0.000000000000000E+000 0.937500000000000E+000 0.000000000000000E+000
 0.250000000000000E+000 0.100000000000000E+001 0.000000000000000E+000
 0.125000000000000E+000 0.100000000000000E+001 0.000000000000000E+000
 0.559955578663221E-001 0.864626829113867E+000 0.000000000000000E+000
 0.201656717908302E+000 0.819893736067327E+000 0.000000000000000E+000
 0.181985294117647E-001 0.906250000000000E+000 0.000000000000000E+000
 0.157158578892515E+000 0.827852167423944E+000 0.000000000000000E+000
 0.173219498992632E+000 0.789273026175030E+000 0.000000000000000E+000
 0.190370748034901E+000 0.885171153579592E+000 0.000000000000000E+000
 0.163362285670037E+000 0.862539079232243E+000 0.000000000000000E+000
 0.145689809422689E+000 0.911060496538305E+000 0.000000000000000E+000
 0.260169562085505E+000 0.921822264266383E+000 0.000000000000000E+000
 0.999952720236157E-001 0.900131729869707E+000 0.000000000000000E+000
 0.181336648989602E+000 0.921080529637299E+000 0.000000000000000E+000
 0.187500000000000E+000 0.100000000000000E+001 0.000000000000000E+000
 0.625000000000000E-001 0.100000000000000E+001 0.000000000000000E+000
 0.391044682108720E-001 0.939348618511729E+000 0.000000000000000E+000
 0.987901813178879E-001 0.953497897705852E+000 0.000000000000000E+000
 0.127430470763290E+000 0.938015442955272E+000 0.000000000000000E+000
 0.735147503821561E-001 0.927156548383149E+000 0.000000000000000E+000
 0.187500000000000E+000 0.750000000000000E+000 0.000000000000000E+000
 0.937500000000000E-001 0.986976003387646E+000 0.000000000000000E+000
 0.647068558612996E-001 0.964310770745732E+000 0.000000000000000E+000
 0.287348941263244E-001 0.975594752089430E+000 0.000000000000000E+000
 0.140548246895551E+000 0.780148342865875E+000 0.000000000000000E+000
 0.625000000000000E-001 0.656250000000000E+000 0.000000000000000E+000
 0.885416666666667E-001 0.718750000000000E+000 0.000000000000000E+000
 0.125000000000000E+000 0.687500000000000E+000 0.000000000000000E+000
 0.418778153153153E-001 0.701096693284193E+000 0.000000000000000E+000
 0.130000591648319E-001 0.718750000000000E+000 0.000000000000000E+000
 0.886787280701754E-001 0.682017543859649E+000 0.000000000000000E+000
 0.324539302647226E+000 0.874753539998500E+000 0.000000000000000E+000
 0.220842706957930E+000 0.911928394103011E+000 0.000000000000000E+000
 0.255656705174793E+000 0.856653769033302E+000 0.000000000000000E+000
 0.230240640268531E+000 0.957679342037283E+000 0.000000000000000E+000
 0.247273788001812E+000 0.889974781313083E+000 0.000000000000000E+000
 0.287822583654814E+000 0.892090285129540E+000 0.000000000000000E+000
 0.375000000000000E+000 0.100000000000000E+001 0.000000000000000E+000
 0.312500000000000E+000 0.100000000000000E+001 0.000000000000000E+000
 0.296339471848887E+000 0.927737349884604E+000 0.000000000000000E+000
 0.272754945277513E+000 0.963602684427479E+000 0.000000000000000E+000
 0.218750000000000E+000 0.100000000000000E+001 0.000000000000000E+000
 0.156250000000000E+000 0.970185411869689E+000 0.000000000000000E+000
 0.193067439035452E+000 0.962879965079150E+000 0.000000000000000E+000
 0.366022419631980E+000 0.930828672570042E+000 0.000000000000000E+000
 0.331917636626289E+000 0.912676918057824E+000 0.000000000000000E+000
 0.218750000000000E+000 0.780050991479902E+000 0.000000000000000E+000
 0.270314960374965E+000 0.802399429390985E+000 0.000000000000000E+000
 0.239019213447470E+000 0.823051378525603E+000 0.000000000000000E+000
 0.312500000000000E+000 0.750000000000000E+000 0.000000000000000E+000
 0.297176692881550E+000 0.838764170920897E+000 0.000000000000000E+000
 0.316491084060399E+000 0.796393690767677E+000 0.000000000000000E+000
 0.343750000000000E+000 0.770680188507291E+000 0.000000000000000E+000
 0.409908719410776E+000 0.836702006091634E+000 0.000000000000000E+000
 0.362591033297072E+000 0.817958948082628E+000 0.000000000000000E+000
 0.401086171766563E+000 0.789875587437421E+000 0.000000000000000E+000
 0.371341896832358E+000 0.864966336467817E+000 0.000000000000000E+000
 0.333452116450771E+000 0.839580614538559E+000 0.000000000000000E+000
 0.625000000000000E+000 0.500000000000000E+000 0.000000000000000E+000
 0.497245004128187E+000 0.796002674320860E+000 0.000000000000000E+000
 0.375000000000000E+000 0.625000000000000E+000 0.000000000000000E+000
 0.448383797292392E+000 0.805208595628784E+000 0.000000000000000E+000
 0.410140101146819E+000 0.755482168792868E+000 0.000000000000000E+000
 0.466643384891561E+000 0.767852445997818E+000 0.000000000000000E+000
 0.476967665188550E+000 0.732032311892081E+000 0.000000000000000E+000
 0.540753556856103E+000 0.747012385328872E+000 0.000000000000000E+000
 0.490851671729155E+000 0.896339978179292E+000 0.000000000000000E+000
 0.457989751325779E+000 0.856193010026991E+000 0.000000000000000E+000
 0.477617377726983E+000 0.826097842173926E+000 0.000000000000000E+000
 0.546397010943533E+000 0.849506899903764E+000 0.000000000000000E+000
 0.514994092174850E+000 0.829026377565149E+000 0.000000000000000E+000
 0.557956128164421E+000 0.797467818442289E+000 0.000000000000000E+000
 0.513053884697208E+000 0.866316721845202E+000 0.000000000000000E+000
 0.531719458287368E+000 0.903340824708691E+000 0.000000000000000E+000
 0.750000000000000E+000 0.100000000000000E+001 0.000000000000000E+000
 0.503122841217304E+000 0.947490703764094E+000 0.000000000000000E+000
 0.428509525448068E+000 0.913846660476909E+000 0.000000000000000E+000
 0.625000000000000E+000 0.100000000000000E+001 0.000000000000000E+000
 0.410139362032626E+000 0.877461197108989E+000 0.000000000000000E+000
 0.393550593852374E+000 0.908666538512922E+000 0.000000000000000E+000
 0.455853425536278E+000 0.891464570133054E+000 0.000000000000000E+000
 0.465565809489837E+000 0.931223943045515E+000 0.000000000000000E+000
 0.430803944763131E+000 0.957152995135723E+000 0.000000000000000E+000
 0.361862549463301E+000 0.897277191535820E+000 0.000000000000000E+000
 0.281250000000000E+000 0.768022264880110E+000 0.000000000000000E+000
 0.528016132294562E+000 0.779515446907155E+000 0.000000000000000E+000
 0.582435077211395E+000 0.760961532636893E+000 0.000000000000000E+000
 0.594258447236559E+000 0.718750000000000E+000 0.000000000000000E+000
 0.513210480866922E+000 0.721000388231171E+000 0.000000000000000E+000
 0.625000000000000E+000 0.625000000000000E+000 0.000000000000000E+000
 0.293099715520438E+000 0.681007179427844E+000 0.000000000000000E+000
 0.625000000000000E+000 0.687500000000000E+000 0.000000000000000E+000
 0.375000000000000E+000 0.500000000000000E+000 0.000000000000000E+000
 0.588365877190365E+000 0.682207614843486E+000 0.000000000000000E+000
 0.544806337802789E+000 0.700097114505632E+000 0.000000000000000E+000
 0.473117607324743E+000 0.654334216996401E+000 0.000000000000000E+000
 0.507976816774602E+000 0.678758937084175E+000 0.000000000000000E+000
 0.471770128441152E+000 0.693345422145358E+000 0.000000000000000E+000
 0.540484989053884E+000 0.595274872726202E+000 0.000000000000000E+000
 0.434924684287812E+000 0.717988149163748E+000 0.000000000000000E+000
 0.438762107036035E+000 0.672676424045669E+000 0.000000000000000E+000
 0.514022824851611E+000 0.633041943182225E+000 0.000000000000000E+000
 0.375000000000000E+000 0.687500000000000E+000 0.000000000000000E+000
[...]
CELL_DATA         5036
SCALARS tdens double 1
LOOKUP_TABLE default
 0.464278248242520E-006
 0.196398583619511E-005
 0.686891000923945E-006
 0.620449595443347E-006
 0.502410840113079E-003
 0.241383548661732E-003
 0.274932623577123E-003
 0.267601138442803E-003
 0.714575838674219E-001
 0.945428967669909E-001
 0.987850519265979E-001
 0.966867827381474E-001
 0.419021404604865E-006
 0.184879259637088E-006
 0.336085971853260E-006
 0.332780313797085E-006
 0.886667454226873E-006
 0.736592408086867E-006
 0.488092422212138E-006
 0.643100946513583E-006
 0.386939000667780E-007
 0.342997844831255E-007
 0.125993984174824E-007
 0.283810611099851E-007
 0.278604370113649E-001
 0.241006575666539E-001
 0.671944336481777E-001
 0.260272839428307E-001
 0.972867827086980E-001
 0.115672492286859E+000
 0.915892728632704E-001
 0.965919084536960E-001
 0.137061879205503E+000
 0.157993606084002E+000
 0.162406174292868E+000
 0.160336631820227E+000
 0.995301430751466E-005
 0.848575688324833E-005
 0.660072374109218E-005
 0.877779691601489E-005
 0.811444546637048E-004
 0.135220558082643E-003
 0.134265298316225E-003
 0.133488072508460E-003
 0.106133319281882E-002
 0.189360490468267E-002
 0.150156539216986E-002
 0.145132536155173E-002
 0.207572359312210E-003
 0.777886767067906E-004
 0.169180699399853E-004
 0.630398920614826E-004
 0.139541648210155E+000
 0.838332825020993E-001
 0.104749238256346E+000
 0.931324342697321E-001
 0.191885622663666E-001
 0.898252106901169E-002
 0.114943031368456E-001
 0.108977545096667E-001
 0.124926670167473E+000
 0.124833962067863E+000
 0.175043418596151E+000
 0.126106659312499E+000
 0.572835930770460E-004
 0.101026276475799E-003
 0.499606721276656E-004
 0.568100768044057E-004
 0.312606926054887E-003
 0.102678014555338E-001
 0.227526792770091E-002
 0.274398911056199E-002
 0.312217708348768E-006
 0.272271767183038E-006
 0.288497502853825E-006
 0.286448427686412E-006
 0.115803046905467E+000
 0.116378514023666E+000
 0.100795369899115E+000
 0.116262296857000E+000
 0.237241200795324E-002
 0.399480095948886E-002
 0.150124332290782E-002
 0.236090650008641E-002
 0.451217020428857E-007
 0.418301319709223E-007
 0.440129397016833E-007
 0.433503793998511E-007
 0.136611394276138E+000
 0.135076455660870E+000
 0.129234539564127E+000
 0.135174935459794E+000
 0.631960237148452E-007
 0.473714164411661E-007
 0.472526022695088E-007
 0.514995085931917E-007
 0.131783519876928E+000
 0.130352363862011E+000
 0.126583493269983E+000
 0.128890171140056E+000
 0.949461124769807E-001
 0.102114389022059E+000
 0.735684004749818E-001
 0.959953057958713E-001
 0.172511698722596E-006
 0.948721544580110E-006
 0.583971290820819E-006
 0.513288082595573E-006
 0.463007493275442E-002
 0.112946878775405E-002
 0.407969911348008E-002
 0.423040852457143E-002
 0.340984610033234E-001
 0.106788201176830E-001
 0.345471687621262E-001
 0.332133028298730E-001
 0.150356289831963E-003
 0.769648022823727E-004
 0.921927887371964E-004
 0.901495220690241E-004
 0.207878928816727E-004
 0.128007534797096E-004
 0.312699327171245E-004
 0.198879888025260E-004
 0.450692777122150E-004
 0.116676425497452E-003
 0.458897629335566E-003
 0.869908758682164E-004
 0.739986910857326E-006
 0.251808467288522E-006
 0.308754625501086E-007
 0.861536869143055E-007
 0.421741527798263E-003
 0.743694102369657E-002
 0.101038151000068E-001
 0.943490227115028E-002
 0.295727003371811E-006
 0.306393551024595E-006
 0.195907709264192E-006
 0.274832926239461E-006
 0.386115122432865E-007
 0.413872741805212E-007
 0.407150323153904E-007
 0.405867672436141E-007
 0.101342565710272E-005
 0.537389725704939E-006
 0.492086170038532E-006
 0.607889405850777E-006
 0.548496137414278E-007
 0.458965989649112E-007
 0.476578961723999E-007
 0.488334729436488E-007
 0.237372896022464E-007
 0.951616146186291E-007
 0.808036684955657E-007
 0.301760642719852E-007
 0.370997303387461E-007
 0.429136012415486E-007
 0.425081952724839E-007
 0.389471114116826E-007
 0.705354926091788E-007
 0.470819755819263E-007
 0.541163004721260E-007
 0.568704316511400E-007
 0.315629744443543E-001
 0.458235456057792E-001
 0.537406986199591E-001
 0.501862198298487E-001
 0.461785876674202E-007
 0.559620669758677E-007
 0.488604136920219E-007
 0.498684812897438E-007
 0.495914664306073E-007
 0.711224498179897E-007
 0.613221290039806E-007
 0.575874369885974E-007
 0.407175900111704E-007
 0.418897937134117E-007
 0.405860888099915E-007
 0.408247476668555E-007
 0.555442627971920E-007
 0.924010468434857E-007
 0.107590970714944E-006
 0.876109025429979E-007
 0.172081657569484E-002
 0.256306225952358E-002
 0.254922065084143E-002
 0.256270302936826E-002
 0.178175145777217E-006
 0.431413910646912E-006
 0.151113837554067E-006
 0.205474436995140E-006
 0.103652748888412E-005
 0.255584489261555E-002
 0.102210885943297E-001
 0.534221361137116E-002
 0.478440371413726E-007
 0.884009913582323E-007
 0.814607582435093E-007
 0.717415653951734E-007
 0.129427719350550E-006
 0.878422782963852E-007
 0.406824768819047E-006
 0.130939483471702E-006
 0.710700194992838E-005
 0.211667651457728E-005
 0.176297246972754E-005
 0.224328236106313E-005
 0.185916770091037E-004
 0.151683353789983E-005
 0.183567320054653E-004
 0.148577751068405E-004
 0.485001900282744E-007
 0.626177921169185E-007
 0.824039193344919E-007
 0.622739018313574E-007
 0.964691673153215E-007
 0.107840914073867E-006
 0.724053241983040E-007
 0.937937796573359E-007
 0.206501918070336E-006
 0.461398764536530E-006
 0.576686836449870E-006
 0.434168437555350E-006
 0.426015453306471E-007
 0.424727052805232E-007
 0.681413642222891E-007
 0.480105361777824E-007
 0.506225619821374E-001
 0.338949697300273E-001
 0.623623125681708E-001
 0.396056365701738E-001
 0.223099585740488E-002
 0.329285781176177E-002
 0.796916224091719E-002
 0.302514591298522E-002
 0.139951749194560E-006
 0.338308494861440E-006
 0.160740871239694E-006
 0.182040589533725E-006
 0.117486783598199E-002
 0.950332591942945E-003
 0.249695636951872E-002
 0.112069763207472E-002
 0.170836654108344E-005
 0.136620424268203E-005
 0.115743542114842E-004
 0.209215323715497E-005
 0.800658380066331E-002
 0.216366941825360E-001
 0.109991169414261E-002
 0.989541146518577E-002
 0.275858026769742E-006
 0.214237139888359E-006
 0.510716890219461E-006
 0.294485763759830E-006
 0.239895355115025E-007
 0.376677289382065E-007
 0.339797014032833E-007
 0.316445759108106E-007
 0.834814427356677E-007
 0.131336265390368E-006
 0.277436143715833E-006
 0.162321619302986E-006
 0.356815515186918E-001
 0.149220619076436E-001
 0.679517696410865E-002
 0.148931700436320E-001
 0.853731838027037E-001
 0.109243846496399E+000
 0.104718077306881E+000
 0.961050434014973E-001
 0.147854551641537E-001
 0.282493462175169E-001
 0.476012747249165E-001
 0.375213871997974E-001
 0.425598628225276E-001
 0.674039746590594E-001
 0.845060630772400E-001
 0.648007969733912E-001
 0.108022277017553E-002
 0.580394146590845E-002
 0.311099730075949E-002
 0.369966532240438E-002
 0.348097929644093E-001
 0.694287675691227E-002
 0.200335427901194E-001
 0.206397064431493E-001
 0.413784193773581E-004
 0.339515158339206E-003
 0.333999604708241E-003
 0.299518569233415E-003
 0.795349877202741E-004
 0.414823719841863E-004
 0.308848247912449E-003
 0.822671443918217E-004
 0.353642175304267E-006
 0.861076583023261E-006
 0.882353320057861E-006
 0.753648867386975E-006
 0.889183742623660E-004
 0.313437383719844E-003
 0.417236217444874E-003
 0.310281735817183E-003
 0.609881901968676E-006
 0.207034668664571E-006
 0.276984193408933E-006
 0.320590382932516E-006
 0.122643281212664E-004
 0.941576083108686E-005
 0.208174908436857E-005
 0.888850642717068E-005
 0.217941347306062E-004
 0.320861866118570E-005
 0.122038578750210E-004
 0.128015080146333E-004
 0.936751480509416E-004
 0.343644142749283E-003
 0.267466287125593E-003
 0.304058980347610E-003
 0.145326512340380E-002
 0.313058497574789E-002
 0.160773556841920E-002
 0.162147419730318E-002
 0.131299984450647E-006
 0.918440105969807E-007
 0.164014501255601E-006
 0.127989279794214E-006
 0.260646168957312E-004
 0.172815566884454E-003
 0.556171277094604E-004
 0.579679519785382E-004
 0.170376160387955E-007
 0.275990352231678E-007
 0.155582436485784E-007
 0.191557604147722E-007
 0.325476904233385E-007
 0.317123834063065E-007
 0.213520562507759E-007
 0.279168461590571E-007
 0.744158949661285E-007
 0.471175225941672E-007
 0.436627106794829E-007
 0.517524542175637E-007
 0.142577212486654E-006
 0.803958220847969E-007
 0.691485986948229E-007
 0.866298573299705E-007
 0.243243097771610E-004
 0.559512977602955E-005
 0.104955399857116E-004
 0.105272741153433E-004
 0.117190638615655E-007
 0.975085827964588E-008
 0.412310405242737E-008
 0.771759330232437E-008
 0.778481209998141E-006
 0.891124392919701E-006
 0.346134356069771E-006
 0.692504100557973E-006
 0.440863043264120E-006
 0.191419826049166E-006
 0.156004740534344E-006
 0.203947575193713E-006
 0.738294608748985E-007
 0.129967151873141E-006
 0.149998552731661E-006
 0.123068367946800E-006
 0.837323566235285E-001
 0.574760602486006E-001
 0.680376684553070E-001
 0.765856189143292E-001
 0.146049757528165E-001
 0.225563834326916E-001
 0.553427840638120E-002
 0.144827230033281E-001
 0.102300655284915E-006
 0.371328064697077E-007
 0.658651533389507E-007
 0.619145394784397E-007
 0.441763362813939E-007
 0.535426695066827E-007
 0.290952230180725E-007
 0.407894272646206E-007
 0.100713525826693E-007
 0.134427807799245E-007
 0.422261608910234E-008
 0.821802668067162E-008
 0.102935157838955E-006
 0.605031164054656E-007
 0.516587513385124E-007
 0.641130735103913E-007
 0.333782921190616E-007
 0.373111491950227E-007
 0.187977747647563E-007
 0.303341009533482E-007
 0.212743729362639E-007
 0.167612134579962E-007
 0.345306301837553E-007
 0.224547001164610E-007
 0.480356636149178E-001
 0.201845511929046E-001
 0.132297024864666E-001
 0.311924932087550E-001
 0.285359490825090E-001
 0.237170491580050E-001
 0.390340054276617E-001
 0.312178300461271E-001
 0.487360457611285E-007
 0.288982172548270E-007
 0.580942481108310E-007
 0.458225212669528E-007
 0.410246998603922E-006
 0.842890183368432E-006
 0.173668694913577E-005
 0.101856408715752E-005
 0.245274449550397E-007
 0.892491735071703E-008
 0.126532034317979E-007
 0.145487846872121E-007
 0.154521969842100E-007
 0.271438809508329E-007
 0.285055585457610E-007
 0.210147204763375E-007
 0.197150897226510E-007
 0.319972336326498E-007
 0.288864899375186E-007
 0.270887022999539E-007
 0.326116778356545E-007
 0.232990083772603E-007
 0.377780864142304E-007
 0.298267889816708E-007
 0.397452590874161E-007
 0.384344332283154E-007
 0.405555583480278E-007
 0.396671225731748E-007
 0.373546288838124E-007
 0.432455783922775E-007
 0.437216853004811E-007
 0.412944279169540E-007
 0.418359587333059E-007
 0.368107550773461E-007
 0.397864288104212E-007
 0.401912247187120E-007
 0.363048232355471E-007
 0.387201845689697E-007
 0.349122828564830E-007
 0.367224922435793E-007
 0.649183774234702E-007
 0.122808225288449E-007
 0.686474696269194E-008
 0.930241392611036E-008
 0.290703885023922E-007
 0.467431956442492E-007
 0.158296524744464E-006
 0.552565619644003E-007
 0.522115756352645E-001
 0.390711573885575E-001
 0.272230353042258E-001
 0.391254430332317E-001
 0.585056638812559E-003
 0.758664448778351E-003
 0.210171394029374E-003
 0.590914063082282E-003
 0.201859589288512E-002
 0.635230864888722E-003
 0.588802179610540E-003
 0.650348703617934E-003
 0.101690620127847E+000
 0.957933628543276E-001
 0.825516537535479E-001
 0.100170556161924E+000
 0.511741225965606E-002
 0.144701269795741E-001
 0.733532301241650E-002
 0.700584928716455E-002
 0.190674833338361E-005
 0.496852250796611E-005
 0.335675244037134E-005
 0.290658624870059E-005
 0.157737988689628E-005
 0.186691343378242E-005
 0.490886246237531E-005
 0.199336517646755E-005
 0.669359807476328E-002
 0.122248565668516E-002
 0.176007413174948E-002
 0.149947500176153E-002
 0.240410824875852E-001
 0.385027559426565E-001
 0.135385309419235E-001
 0.225092895539165E-001
 0.219151944105780E-003
 0.767168349606669E-003
 0.364002070438099E-003
 0.349097753623090E-003
 0.148772270178662E-002
 0.267579135846815E-002
 0.304924911406871E-002
 0.266809296347498E-002
 0.283844116802046E-002
 0.158486676776981E-002
 0.322265027931639E-002
 0.305515374559387E-002
 0.381955202324757E-003
 0.539980082923424E-003
 0.229425314771297E-003
 0.377723905854441E-003
 0.410563728825951E-004
 0.177529516806229E-004
 0.566798250037751E-004
 0.339596907776757E-004
 0.665157803555260E-002
 0.864006678079123E-002
 0.157365653544687E-001
 0.776141268136301E-002
 0.146912826205509E-004
 0.361692914330531E-004
 0.536025822847622E-004
 0.372875245493391E-004
 0.196692430404730E-004
 0.278427303123783E-005
 0.286645335692418E-005
 0.329387236064393E-005
 0.152073634286870E-003
 0.940187367700999E-004
 0.424004960991875E-003
 0.148107279019531E-003
 0.830970475406234E-006
 0.277331157547105E-006
 0.737499333414332E-006
 0.554602127922183E-006
 0.236297688054435E-004
 0.997339009012073E-005
 0.621695797795040E-005
 0.928436515683808E-005
 0.319823510049019E-005
 0.209754641630465E-004
 0.920978483866089E-005
 0.968899574698406E-005
 0.178644098858042E-003
 0.270393720143209E-004
 0.670394052936359E-004
 0.626629341695326E-004
 0.111627061326383E+000
 0.110088385077767E+000
 0.111965933793962E+000
 0.111607538366704E+000
 0.570615168497551E-002
 0.606696953751973E-002
 0.238187694555577E-002
 0.573252272759754E-002
 0.160687413597038E-001
 0.210545566857053E-001
 0.287582284090625E-001
 0.209952150314299E-001
 0.666798903455268E-003
 0.207054013984067E-002
 0.190845966177882E-002
 0.192461371618300E-002
 0.108708030148337E+000
 0.109758136146069E+000
 0.109228099978497E+000
 0.109146305130043E+000
 0.642443305337524E-001
 0.881371837935487E-001
 0.726077552157202E-001
 0.694645601141929E-001
 0.766115143163865E-001
 0.102745608017796E+000
 0.948779654210440E-001
 0.981185899134573E-001
 0.129100734082497E-001
 0.367122143921115E-001
 0.213870245383780E-001
 0.224331085017015E-001
 0.220285179933610E-001
 0.532761380618424E-001
 0.285876063715718E-001
 0.274998914923621E-001
 0.956574732540360E-001
 0.871479750234728E-001
 0.777942396583249E-001
 0.857595313488694E-001
 0.109170523576185E+000
 0.110248360433477E+000
 0.110556302709791E+000
 0.110415879566110E+000
 0.127582177833661E+000
 0.112011370218876E+000
 0.121851279719810E+000
 0.124004613322089E+000
 0.405422158925436E-001
 0.832348130767204E-001
 0.593659747333522E-001
 0.605283841968867E-001
 0.109207197983439E+000
 0.110838824376652E+000
 0.111295602131967E+000
 0.111044859079165E+000
 0.106460881606996E+000
 0.109664566032668E+000
 0.112408590405399E+000
 0.108951555117811E+000
 0.104168422871859E+000
 0.891995779508271E-001
 0.107707124636834E+000
 0.105261459168095E+000
 0.960232043906101E-001
 0.887327208824627E-001
 0.104063852048985E+000
 0.950958860917045E-001
 0.109101032728769E+000
 0.112767218698850E+000
 0.114445645383278E+000
 0.113892101151853E+000
 0.102054386977865E+000
 0.106876528915169E+000
 0.115211606505349E+000
 0.105595824064933E+000
 0.501775173539582E-001
 0.749628132006222E-001
 0.461356441891799E-001
 0.490629900948193E-001
 0.541790342457683E-001
 0.852600371862616E-001
 0.790799672410617E-001
 0.805393642274451E-001
 0.460433324034318E-001
 0.519540784515612E-001
 0.268152169897435E-001
 0.477358582994375E-001
 0.867079663470720E-001
 0.108333776411561E+000
 0.898471037120891E-001
 0.882217562373895E-001
 0.114261688979861E+000
 0.875628572298124E-001
 0.901130037163700E-001
 0.891590214479440E-001
 0.371822277165701E-001
 0.407056638304812E-001
 0.609424350252453E-001
 0.403899837663035E-001
 0.647566752542422E-002
 0.348338547195031E-002
 0.779385615558616E-002
 0.708081832571387E-002
 0.102746156592189E+000
 0.770187191045732E-001
 0.746665892510400E-001
 0.771187604179372E-001
 0.562566066753949E-001
 0.693422643146368E-001
 0.871041786335699E-001
 0.667676326307048E-001
 0.289735968646730E+000
 0.248985709022372E+000
 0.270956689601341E+000
 0.273900355499846E+000
 0.191080762023061E+000
 0.159473915375558E+000
 0.188660733397974E+000
 0.187483624604174E+000
 0.800436097616160E-001
 0.101755255333204E+000
 0.819409445538715E-001
 0.834704661327835E-001
 0.846988102024682E-001
 0.865739997534837E-001
 0.109290410225709E+000
 0.855126489926814E-001
 0.159647421690581E+000
 0.196317874555936E+000
 0.187292956186809E+000
 0.190851004688546E+000
 0.768057633485391E-001
 0.678099861180669E-001
 0.675944547312162E-001
 0.730407724566782E-001
 0.112932269810968E+000
 0.109620462992922E+000
 0.866314896458075E-001
 0.111690400863434E+000
 0.115334012207468E+000
 0.111221599656855E+000
 0.906287085061262E-001
 0.111099423838402E+000
 0.142258484921187E+000
 0.140791503336751E+000
 0.139757619428127E+000
 0.140259024602289E+000
 0.769895320459689E-001
 0.107030753795745E+000
 0.673306090625528E-001
 0.747854120673048E-001
 0.539985228187600E-001
 0.513728675316751E-001
 0.613571310309144E-001
 0.578801563554403E-001
 0.106783456007848E+000
 0.113795147806122E+000
 0.923895046657623E-001
 0.105921492448570E+000
 0.156261331212186E+000
 0.196732526762079E+000
 0.138909660587598E+000
 0.172379621164917E+000
 0.367432932243263E-001
 0.437226961546238E-001
 0.434691964488238E-001
 0.392191335275651E-001
 0.224401594258698E-002
 0.273972771581363E-002
 0.163801686792656E-002
 0.216455359774823E-002
 0.125651392079949E+000
 0.120418600353477E+000
 0.127791331117261E+000
 0.127337095831944E+000
 0.111108036524629E+000
 0.103419355088074E+000
 0.121687790263101E+000
 0.112681458701160E+000
 0.272023150549786E-001
 0.249700541718357E-001
 0.136743861599607E-001
 0.256044224465422E-001
 0.119703997445475E+000
 0.118576760883745E+000
 0.114577878744425E+000
 0.119449201297782E+000
 0.382562603522066E-001
 0.371102753995243E-001
 0.608629407056366E-001
 0.383037427787435E-001
 0.123845845354692E+000
 0.121261482015298E+000
 0.114626139099977E+000
 0.123269303367048E+000
 0.111761255789732E+000
 0.116569103580913E+000
 0.859760104813477E-001
 0.113203163401139E+000
 0.893351242532020E-001
 0.644927103456180E-001
 0.473045528529082E-001
 0.633870556939842E-001
 0.138807883816097E+000
 0.124856556604263E+000
 0.132045237753302E+000
 0.128462471315358E+000
 0.123328996061306E+000
 0.105499950290786E+000
 0.115413242509655E+000
 0.112153579538164E+000
 0.855660416968845E-001
 0.117457749420831E+000
 0.107390548648808E+000
 0.107838250065360E+000
 0.102477469535261E+000
 0.114018995302932E+000
 0.101233334285640E+000
 0.106580924549667E+000
 0.106653741217886E+000
 0.119276930306015E+000
 0.119325210274139E+000
 0.113197792761190E+000
 0.119541344032241E-001
 0.174109234183691E-001
 0.676013541099377E-001
 0.192015610193678E-001
 0.617504527371522E-001
 0.627411688088614E-001
 0.394622272054064E-001
 0.618983161483687E-001
 0.236333107346113E+000
 0.190605566612671E+000
 0.200017943365423E+000
 0.207258406621599E+000
 0.129898165650448E+000
 0.123235461298859E+000
 0.134721454847765E+000
 0.132844801243079E+000
 0.544825396851326E-003
 0.829604343890308E-003
 0.116638177470289E-002
 0.817095525207855E-003
 0.866281312589968E-001
 0.462020122450917E-001
 0.702611250517095E-001
 0.715094273309621E-001
 0.645596308928809E-002
 0.157807961255126E-001
 0.125224135336369E-001
 0.119545385224985E-001
 0.157571440047256E-001
 0.635510249858740E-002
 0.169062126368032E-001
 0.158422585650736E-001
 0.395104780856639E-001
 0.633711210826687E-001
 0.405333613466637E-001
 0.391965982977941E-001
 0.112938267850874E-002
 0.103223935438205E-002
 0.577007099583895E-003
 0.101107857422536E-002
 0.863037679569392E-002
 0.188357456185618E-001
 0.184571231037240E-001
 0.185565446153711E-001
 0.657918913588600E-001
 0.455076958945735E-001
 0.739747042058519E-001
 0.668706037000192E-001
 0.134255283362768E-001
 0.241445521649324E-001
 0.133518688955647E-001
 0.135038670311248E-001
 0.397393117296016E-002
 0.172981441612122E-002
 0.207434272775711E-002
 0.198998821366697E-002
 0.374864518715501E-002
 0.504505502610876E-002
 0.830579323904116E-002
 0.460387259587150E-002
 0.783440166583728E-002
 0.171563817956059E-001