# vtk DataFile Version 3.0
Unstructured Grid
ASCII
DATASET UNSTRUCTURED_GRID
FIELD FieldData 1
TIME 1 1 float
  0.000000E+00
POINTS           35 double
 0.353907831932549E+000 0.718491165265882E+000 0.000000000000000E+000
 0.497828449785554E+000 0.703501976348269E+000 0.000000000000000E+000
 0.518160283569089E+000 0.699678096948997E+000 0.000000000000000E+000
 0.630208333333333E+000 0.703125000000000E+000 0.000000000000000E+000
 0.655428571091787E+000 0.709241859419098E+000 0.000000000000000E+000
 0.364453915966274E+000 0.718620582632941E+000 0.000000000000000E+000
 0.404371876823710E+000 0.709172254264007E+000 0.000000000000000E+000
 0.639803571091787E+000 0.693616859419098E+000 0.000000000000000E+000
 0.585139623481634E+000 0.713757863700334E+000 0.000000000000000E+000
 0.430460880845436E+000 0.710011175194681E+000 0.000000000000000E+000
 0.616970173409193E+000 0.699524700280948E+000 0.000000000000000E+000
 0.343491165265882E+000 0.728907831932549E+000 0.000000000000000E+000
 0.503582561631890E+000 0.695183598397649E+000 0.000000000000000E+000
 0.385064198341402E+000 0.718750000000000E+000 0.000000000000000E+000
 0.570301159874954E+000 0.709499653613911E+000 0.000000000000000E+000
 0.681470237758454E+000 0.735283526085764E+000 0.000000000000000E+000
 0.675440475516907E+000 0.720567052171529E+000 0.000000000000000E+000
 0.417826737934821E+000 0.714380587597340E+000 0.000000000000000E+000
 0.547432350489244E+000 0.701831130895458E+000 0.000000000000000E+000
 0.538469571570951E+000 0.692862791207341E+000 0.000000000000000E+000
 0.331579512468588E+000 0.720442503344025E+000 0.000000000000000E+000
 0.443095023756051E+000 0.714380587597340E+000 0.000000000000000E+000
 0.380032099170701E+000 0.703125000000000E+000 0.000000000000000E+000
 0.395128396682804E+000 0.718750000000000E+000 0.000000000000000E+000
 0.656250000000000E+000 0.729166666666667E+000 0.000000000000000E+000
 0.523833538110874E+000 0.691786274234110E+000 0.000000000000000E+000
 0.665845237758454E+000 0.719658526085764E+000 0.000000000000000E+000
 0.645833333333333E+000 0.718750000000000E+000 0.000000000000000E+000
 0.592880693636772E+000 0.704348801123791E+000 0.000000000000000E+000
 0.316148638519176E+000 0.736261629394613E+000 0.000000000000000E+000
 0.608940346818386E+000 0.711549400561895E+000 0.000000000000000E+000
 0.635416666666667E+000 0.718750000000000E+000 0.000000000000000E+000
 0.457063731201132E+000 0.709703770905057E+000 0.000000000000000E+000
 0.484455107836680E+000 0.702551853101359E+000 0.000000000000000E+000
 0.562126695472201E+000 0.699489666290572E+000 0.000000000000000E+000
CELLS           76         228
           2
           0
          20
           2
           0
          11
           2
           0
           5
           2
           1
          12
           2
           1
           2
           2
           1
          33
           2
           2
          25
           2
           2
          12
           2
           2
          19
           2
           2
          18
           2
           3
          10
           2
           3
          30
           2
           3
          27
           2
           3
          31
           2
           3
           4
           2
           3
           7
           2
           4
          24
           2
           4
          26
           2
           4
          16
           2
           4
          27
           2
           4
          31
           2
           4
           7
           2
           5
          11
           2
           5
          22
           2
           5
          13
           2
           6
          17
           2
           6
           9
           2
           6
          22
           2
           6
          23
           2
           6
          13
           2
           7
          10
           2
           7
          27
           2
           7
          31
           2
           8
          34
           2
           8
          14
           2
           8
          28
           2
           8
          30
           2
           9
          21
           2
           9
          17
           2
           9
          32
           2
          10
          28
           2
          10
          30
           2
          10
          31
           2
          11
          29
           2
          11
          20
           2
          12
          25
           2
          12
          33
           2
          13
          22
           2
          13
          23
           2
          14
          34
           2
          14
          18
           2
          14
          28
           2
          15
          24
           2
          15
          26
           2
          15
          16
           2
          16
          24
           2
          16
          26
           2
          17
          21
           2
          17
          23
           2
          18
          25
           2
          18
          19
           2
          18
          34
           2
          19
          25
           2
          19
          34
           2
          20
          29
           2
          21
          32
           2
          22
          23
           2
          24
          26
           2
          24
          27
           2
          24
          31
           2
          26
          27
           2
          27
          31
           2
          28
          34
           2
          28
          30
           2
          30
          31
           2
          32
          33
CELL_TYPES           76
           3
           3
           3
           3
           3
           3
           3
           3
           3
           3
           3
           3
           3
           3
           3
           3
           3
           3
           3
           3
           3
           3
           3
           3
           3
           3
           3
           3
           3
           3
           3
           3
           3
           3
           3
           3
           3
           3
           3
           3
           3
           3
           3
           3
           3
           3
           3
           3
           3
           3
           3
           3
           3
           3
           3
           3
           3
           3
           3
           3
           3
           3
           3
           3
           3
           3
           3
           3
           3
           3
           3
           3
           3
           3
           3
           3
POINT_DATA           35
SCALARS opt_pot double 1
LOOKUP_TABLE default
 0.200459845216279E+000
 0.506397336645843E-001
 0.299514394221483E-001
-0.103497350773368E+000
-0.157478486182304E+000
 0.186145529381762E+000
 0.142382525764794E+000
-0.129907188619633E+000
-0.407103472499238E-001
 0.118058110842826E+000
-0.808477762820478E-001
 0.217837573180167E+000
 0.458626292460575E-001
 0.165534840687848E+000
-0.244406573065537E-001
-0.189406611220470E+000
-0.165115169939750E+000
 0.132355572363040E+000
 0.600298780718578E-003
 0.883228727292707E-002
 0.238786260947297E+000
 0.107087286541778E+000
 0.167021183033318E+000
 0.155470642346445E+000
-0.135425475811649E+000
 0.256026343438537E-001
-0.145067002285486E+000
-0.111994045370615E+000
-0.454149304809043E-001
 0.266254119303905E+000
-0.655619366810531E-001
-0.969706123465910E-001
 0.923564548592149E-001
 0.640467843867199E-001
-0.142794267200001E-001
