# vtk DataFile Version 3.0
Unstructured Grid
ASCII
DATASET UNSTRUCTURED_GRID
FIELD FieldData 1
TIME 1 1 float
  0.000000E+00
POINTS           35 double
 0.353907831932549E+000 0.718491165265882E+000 0.000000000000000E+000
 0.497828449785554E+000 0.703501976348269E+000 0.000000000000000E+000
 0.518160283569089E+000 0.699678096948997E+000 0.000000000000000E+000
 0.630208333333333E+000 0.703125000000000E+000 0.000000000000000E+000
 0.655428571091787E+000 0.709241859419098E+000 0.000000000000000E+000
 0.364453915966274E+000 0.718620582632941E+000 0.000000000000000E+000
 0.404371876823710E+000 0.709172254264007E+000 0.000000000000000E+000
 0.639803571091787E+000 0.693616859419098E+000 0.000000000000000E+000
 0.585139623481634E+000 0.713757863700334E+000 0.000000000000000E+000
 0.430460880845436E+000 0.710011175194681E+000 0.000000000000000E+000
 0.616970173409193E+000 0.699524700280948E+000 0.000000000000000E+000
 0.343491165265882E+000 0.728907831932549E+000 0.000000000000000E+000
 0.503582561631890E+000 0.695183598397649E+000 0.000000000000000E+000
 0.385064198341402E+000 0.718750000000000E+000 0.000000000000000E+000
 0.570301159874954E+000 0.709499653613911E+000 0.000000000000000E+000
 0.681470237758454E+000 0.735283526085764E+000 0.000000000000000E+000
 0.675440475516907E+000 0.720567052171529E+000 0.000000000000000E+000
 0.417826737934821E+000 0.714380587597340E+000 0.000000000000000E+000
 0.547432350489244E+000 0.701831130895458E+000 0.000000000000000E+000
 0.538469571570951E+000 0.692862791207341E+000 0.000000000000000E+000
 0.331579512468588E+000 0.720442503344025E+000 0.000000000000000E+000
 0.443095023756051E+000 0.714380587597340E+000 0.000000000000000E+000
 0.380032099170701E+000 0.703125000000000E+000 0.000000000000000E+000
 0.395128396682804E+000 0.718750000000000E+000 0.000000000000000E+000
 0.656250000000000E+000 0.729166666666667E+000 0.000000000000000E+000
 0.523833538110874E+000 0.691786274234110E+000 0.000000000000000E+000
 0.665845237758454E+000 0.719658526085764E+000 0.000000000000000E+000
 0.645833333333333E+000 0.718750000000000E+000 0.000000000000000E+000
 0.592880693636772E+000 0.704348801123791E+000 0.000000000000000E+000
 0.316148638519176E+000 0.736261629394613E+000 0.000000000000000E+000
 0.608940346818386E+000 0.711549400561895E+000 0.000000000000000E+000
 0.635416666666667E+000 0.718750000000000E+000 0.000000000000000E+000
 0.457063731201132E+000 0.709703770905057E+000 0.000000000000000E+000
 0.484455107836680E+000 0.702551853101359E+000 0.000000000000000E+000
 0.562126695472201E+000 0.699489666290572E+000 0.000000000000000E+000
CELLS           76         228
           2
           0
          20
           2
           0
          11
           2
           0
           5
           2
           1
          12
           2
           1
           2
           2
           1
          33
           2
           2
          25
           2
           2
          12
           2
           2
          19
           2
           2
          18
           2
           3
          10
           2
           3
          30
           2
           3
          27
           2
           3
          31
           2
           3
           4
           2
           3
           7
           2
           4
          24
           2
           4
          26
           2
           4
          16
           2
           4
          27
           2
           4
          31
           2
           4
           7
           2
           5
          11
           2
           5
          22
           2
           5
          13
           2
           6
          17
           2
           6
           9
           2
           6
          22
           2
           6
          23
           2
           6
          13
           2
           7
          10
           2
           7
          27
           2
           7
          31
           2
           8
          34
           2
           8
          14
           2
           8
          28
           2
           8
          30
           2
           9
          21
           2
           9
          17
           2
           9
          32
           2
          10
          28
           2
          10
          30
           2
          10
          31
           2
          11
          29
           2
          11
          20
           2
          12
          25
           2
          12
          33
           2
          13
          22
           2
          13
          23
           2
          14
          34
           2
          14
          18
           2
          14
          28
           2
          15
          24
           2
          15
          26
           2
          15
          16
           2
          16
          24
           2
          16
          26
           2
          17
          21
           2
          17
          23
           2
          18
          25
           2
          18
          19
           2
          18
          34
           2
          19
          25
           2
          19
          34
           2
          20
          29
           2
          21
          32
           2
          22
          23
           2
          24
          26
           2
          24
          27
           2
          24
          31
           2
          26
          27
           2
          27
          31
           2
          28
          34
           2
          28
          30
           2
          30
          31
           2
          32
          33
CELL_TYPES           76
           3
           3
           3
           3
           3
           3
           3
           3
           3
           3
           3
           3
           3
           3
           3
           3
           3
           3
           3
           3
           3
           3
           3
           3
           3
           3
           3
           3
           3
           3
           3
           3
           3
           3
           3
           3
           3
           3
           3
           3
           3
           3
           3
           3
           3
           3
           3
           3
           3
           3
           3
           3
           3
           3
           3
           3
           3
           3
           3
           3
           3
           3
           3
           3
           3
           3
           3
           3
           3
           3
           3
           3
           3
           3
           3
           3
CELL_DATA           76
SCALARS opt_tdens double 1
LOOKUP_TABLE default
 0.116960709528544E+000
 0.168319203049405E-013
 0.294722519891326E+000
 0.344341049294925E-014
 0.999999999999758E+000
 0.999999999999764E+000
 0.310355951363657E-014
 0.150387616150806E-013
 0.195276099850295E-013
 0.999999999999738E+000
 0.134601525394685E+000
 0.143041957697135E-013
 0.529586035322724E-014
 0.217840960902001E-014
 0.534166507519176E-001
 0.618707292245810E-014
 0.194958924767293E-014
 0.494248736794986E-014
 0.726262154522651E-014
 0.118004587627371E-013
 0.217115221691178E-013
 0.450270729232017E-014
 0.294722519891136E+000
 0.118178059957152E-013
 0.999999999999959E+000
 0.782589853101400E-014
 0.552496200913008E-013
 0.897333308038497E-014
 0.712323960411306E-014
 0.382666082936391E-013
 0.534166507521064E-001
 0.198156482280627E-014
 0.190117872542913E-014
 0.149767348733030E-013
 0.183557851904060E-011
 0.257086360215273E-014
 0.187377184239569E-011
 0.116689782643045E-013
 0.339018213534188E-012
 0.418685136932799E-012
 0.231120424783188E+000
 0.251004408127207E-014
 0.528248788513026E-014
 0.116960709528474E+000
 0.331532068744676E-014
 0.455307701377554E-013
 0.664885600733235E-013
 0.172559933095853E-014
 0.999999999999795E+000
 0.428723427669002E-014
 0.187905130505935E-011
 0.216003355874941E-013
 0.534166507520692E-001
 0.121110825668274E-013
 0.350500895397791E-014
 0.516485149854700E-014
 0.534166507521179E-001
 0.999999999998345E+000
 0.999999999999772E+000
 0.121338297689387E-013
 0.403427855906593E-014
 0.999999999992000E+000
 0.301753949767385E-013
 0.543334830207204E-013
 0.139067063114400E-013
 0.999999999998383E+000
 0.247135242942872E-014
 0.247881874127186E-014
 0.134530671641257E-013
 0.134601525394877E+000
 0.134601525395027E+000
 0.231120424783774E+000
 0.999999999992133E+000
 0.582386976484515E+000
 0.582386976491223E+000
 0.100000000000000E+001
